M 0.0 nn 40 x 5000 y 5000 rp AODV
M 0.0 sc scenario.txt cp ../cbr.txt seed 1.0
M 0.0 prop Propagation/TwoRayGround ant Antenna/OmniAntenna
M 0.00000 0 (3887.97, 1033.27, 0.00), (3887.97, 1033.27), 7.19
M 1.00000 0 (3887.97, 1033.27, 0.00), (3882.37, 1031.31), 5.94
M 2.00000 0 (3882.37, 1031.31, 0.00), (3879.18, 1030.19), 3.38
s 2.556838879 _38_ AGT  --- 0 cbr 512 [0 0 0 0] ------- [38:0 39:0 32 0] [0] 0 0
r 2.556838879 _38_ RTR  --- 0 cbr 512 [0 0 0 0] ------- [38:0 39:0 32 0] [0] 0 0
s 2.556838879 _38_ RTR  --- 0 AODV 48 [0 0 0 0] ------- [38:255 -1:255 30 0] [0x2 1 1 [39 0] [38 4]] (REQUEST)
s 2.556953879 _38_ MAC  --- 0 AODV 106 [0 ffffffff 26 800] ------- [38:255 -1:255 30 0] [0x2 1 1 [39 0] [38 4]] (REQUEST)
M 3.00000 0 (3879.18, 1030.19, 0.00), (3877.68, 1027.96), 2.91
s 3.057178456 _38_ AGT  --- 1 cbr 512 [0 0 0 0] ------- [38:0 39:0 32 0] [1] 0 0
r 3.057178456 _38_ RTR  --- 1 cbr 512 [0 0 0 0] ------- [38:0 39:0 32 0] [1] 0 0
s 3.645301127 _38_ AGT  --- 2 cbr 512 [0 0 0 0] ------- [38:0 39:0 32 0] [2] 0 0
r 3.645301127 _38_ RTR  --- 2 cbr 512 [0 0 0 0] ------- [38:0 39:0 32 0] [2] 0 0
M 4.00000 0 (3877.68, 1027.96, 0.00), (3880.60, 1027.30), 3.26
M 4.00000 1 (1406.76, 706.56, 0.00), (1406.76, 706.56), 13.03
s 4.500000000 _38_ RTR  --- 0 AODV 48 [0 0 0 0] ------- [38:255 -1:255 30 0] [0x2 1 2 [39 0] [38 6]] (REQUEST)
s 4.500075000 _38_ MAC  --- 0 AODV 106 [0 ffffffff 26 800] ------- [38:255 -1:255 30 0] [0x2 1 2 [39 0] [38 6]] (REQUEST)
s 4.586474509 _38_ AGT  --- 3 cbr 512 [0 0 0 0] ------- [38:0 39:0 32 0] [3] 0 0
r 4.586474509 _38_ RTR  --- 3 cbr 512 [0 0 0 0] ------- [38:0 39:0 32 0] [3] 0 0
M 5.00000 0 (3880.60, 1027.30, 0.00), (3885.96, 1029.17), 5.68
M 5.00000 1 (1406.76, 706.56, 0.00), (1419.39, 706.80), 12.63
s 5.902950561 _38_ AGT  --- 4 cbr 512 [0 0 0 0] ------- [38:0 39:0 32 0] [4] 0 0
r 5.902950561 _38_ RTR  --- 4 cbr 512 [0 0 0 0] ------- [38:0 39:0 32 0] [4] 0 0
M 6.00000 0 (3885.96, 1029.17, 0.00), (3892.69, 1031.53), 7.13
M 6.00000 1 (1419.39, 706.80, 0.00), (1429.67, 706.99), 10.28
M 6.00000 2 (3044.63, 592.14, 0.00), (3044.63, 592.14), 14.03
s 6.637552313 _38_ AGT  --- 5 cbr 512 [0 0 0 0] ------- [38:0 39:0 32 0] [5] 0 0
r 6.637552313 _38_ RTR  --- 5 cbr 512 [0 0 0 0] ------- [38:0 39:0 32 0] [5] 0 0
M 7.00000 0 (3892.69, 1031.53, 0.00), (3901.72, 1034.68), 9.56
M 7.00000 1 (1429.67, 706.99, 0.00), (1436.31, 707.12), 6.65
M 7.00000 2 (3044.63, 592.14, 0.00), (3057.46, 594.17), 12.98
s 7.776417456 _38_ AGT  --- 6 cbr 512 [0 0 0 0] ------- [38:0 39:0 32 0] [6] 0 0
r 7.776417456 _38_ RTR  --- 6 cbr 512 [0 0 0 0] ------- [38:0 39:0 32 0] [6] 0 0
M 8.00000 0 (3901.71, 1034.68, 0.00), (3912.76, 1038.53), 11.69
M 8.00000 1 (1436.31, 707.12, 0.00), (1440.64, 710.10), 5.74
M 8.00000 2 (3057.45, 594.17, 0.00), (3070.17, 594.32), 13.08
M 8.00000 3 (1776.87, 1640.71, 0.00), (1776.87, 1640.71), 15.04
s 8.500000000 _38_ RTR  --- 0 AODV 48 [0 0 0 0] ------- [38:255 -1:255 30 0] [0x2 1 3 [39 0] [38 8]] (REQUEST)
s 8.500315000 _38_ MAC  --- 0 AODV 106 [0 ffffffff 26 800] ------- [38:255 -1:255 30 0] [0x2 1 3 [39 0] [38 8]] (REQUEST)
s 8.585496514 _38_ AGT  --- 7 cbr 512 [0 0 0 0] ------- [38:0 39:0 32 0] [7] 0 0
r 8.585496514 _38_ RTR  --- 7 cbr 512 [0 0 0 0] ------- [38:0 39:0 32 0] [7] 0 0
M 9.00000 0 (3912.75, 1038.53, 0.00), (3925.48, 1042.98), 13.48
M 9.00000 1 (1440.64, 710.10, 0.00), (1441.89, 715.51), 5.56
M 9.00000 2 (3070.17, 594.32, 0.00), (3070.49, 582.19), 13.30
M 9.00000 3 (1776.87, 1640.71, 0.00), (1762.83, 1637.91), 14.32
s 9.128291071 _38_ AGT  --- 8 cbr 512 [0 0 0 0] ------- [38:0 39:0 32 0] [8] 0 0
r 9.128291071 _38_ RTR  --- 8 cbr 512 [0 0 0 0] ------- [38:0 39:0 32 0] [8] 0 0
M 10.00000 0 (3925.48, 1042.98, 0.00), (3939.34, 1047.82), 14.68
M 10.00000 1 (1441.89, 715.51, 0.00), (1443.04, 722.40), 6.99
M 10.00000 2 (3070.49, 582.19, 0.00), (3067.12, 569.69), 12.95
M 10.00000 3 (1762.83, 1637.91, 0.00), (1748.73, 1635.09), 14.38
s 10.268358731 _38_ AGT  --- 9 cbr 512 [0 0 0 0] ------- [38:0 39:0 32 0] [9] 0 0
r 10.268358731 _38_ RTR  --- 9 cbr 512 [0 0 0 0] ------- [38:0 39:0 32 0] [9] 0 0
s 10.882166979 _38_ AGT  --- 10 cbr 512 [0 0 0 0] ------- [38:0 39:0 32 0] [10] 0 0
r 10.882166979 _38_ RTR  --- 10 cbr 512 [0 0 0 0] ------- [38:0 39:0 32 0] [10] 0 0
M 11.00000 0 (3939.34, 1047.82, 0.00), (3951.50, 1052.07), 12.89
M 11.00000 1 (1443.04, 722.40, 0.00), (1444.63, 731.86), 9.59
M 11.00000 2 (3067.12, 569.69, 0.00), (3063.60, 556.68), 13.48
M 11.00000 3 (1748.73, 1635.09, 0.00), (1734.15, 1632.18), 14.87
M 12.00000 0 (3951.50, 1052.07, 0.00), (3959.42, 1054.84), 8.39
M 12.00000 1 (1444.63, 731.86, 0.00), (1446.60, 743.46), 11.76
M 12.00000 2 (3063.60, 556.68, 0.00), (3060.07, 543.60), 13.55
M 12.00000 3 (1734.15, 1632.18, 0.00), (1720.20, 1629.40), 14.23
s 12.241894676 _38_ AGT  --- 11 cbr 512 [0 0 0 0] ------- [38:0 39:0 32 0] [11] 0 0
r 12.241894676 _38_ RTR  --- 11 cbr 512 [0 0 0 0] ------- [38:0 39:0 32 0] [11] 0 0
M 13.00000 0 (3959.42, 1054.84, 0.00), (3964.25, 1056.52), 5.12
M 13.00000 1 (1446.60, 743.45, 0.00), (1449.05, 756.07), 12.86
M 13.00000 2 (3060.07, 543.60, 0.00), (3056.73, 531.21), 12.83
M 13.00000 3 (1720.20, 1629.40, 0.00), (1706.22, 1626.61), 14.25
s 13.165551413 _38_ AGT  --- 12 cbr 512 [0 0 0 0] ------- [38:0 39:0 32 0] [12] 0 0
r 13.165551413 _38_ RTR  --- 12 cbr 512 [0 0 0 0] ------- [38:0 39:0 32 0] [12] 0 0
s 13.840356667 _38_ AGT  --- 13 cbr 512 [0 0 0 0] ------- [38:0 39:0 32 0] [13] 0 0
r 13.840356667 _38_ RTR  --- 13 cbr 512 [0 0 0 0] ------- [38:0 39:0 32 0] [13] 0 0
M 14.00000 0 (3964.25, 1056.52, 0.00), (3970.25, 1060.55), 7.39
M 14.00000 1 (1449.05, 756.07, 0.00), (1455.50, 766.59), 12.35
M 14.00000 2 (3056.73, 531.21, 0.00), (3053.22, 518.21), 13.47
M 14.00000 3 (1706.23, 1626.61, 0.00), (1692.17, 1623.81), 14.33
s 14.000000000 _38_ RTR  --- 0 AODV 48 [0 0 0 0] ------- [38:255 -1:255 30 0] [0x2 1 4 [39 0] [38 10]] (REQUEST)
s 14.000395000 _38_ MAC  --- 0 AODV 106 [0 ffffffff 26 800] ------- [38:255 -1:255 30 0] [0x2 1 4 [39 0] [38 10]] (REQUEST)
s 14.434495521 _38_ AGT  --- 14 cbr 512 [0 0 0 0] ------- [38:0 39:0 32 0] [14] 0 0
r 14.434495521 _38_ RTR  --- 14 cbr 512 [0 0 0 0] ------- [38:0 39:0 32 0] [14] 0 0
M 15.00000 0 (3970.25, 1060.55, 0.00), (3970.67, 1067.85), 7.60
M 15.00000 4 (1565.81, 757.70, 0.00), (1565.81, 757.70), 14.31
M 15.00000 1 (1455.50, 766.59, 0.00), (1460.70, 777.82), 12.45
M 15.00000 2 (3053.22, 518.21, 0.00), (3049.65, 505.01), 13.67
M 15.00000 3 (1692.17, 1623.81, 0.00), (1677.52, 1620.88), 14.94
s 15.192583470 _38_ AGT  --- 15 cbr 512 [0 0 0 0] ------- [38:0 39:0 32 0] [15] 0 0
r 15.192583470 _38_ RTR  --- 15 cbr 512 [0 0 0 0] ------- [38:0 39:0 32 0] [15] 0 0
M 16.00000 0 (3970.67, 1067.85, 0.00), (3968.12, 1075.30), 7.88
M 16.00000 4 (1565.81, 757.70, 0.00), (1551.89, 759.61), 14.05
M 16.00000 1 (1460.70, 777.82, 0.00), (1462.81, 789.91), 12.27
M 16.00000 2 (3049.65, 505.01, 0.00), (3046.32, 492.66), 12.79
M 16.00000 3 (1677.52, 1620.88, 0.00), (1664.03, 1618.19), 13.75
s 16.101269146 _38_ AGT  --- 16 cbr 512 [0 0 0 0] ------- [38:0 39:0 32 0] [16] 0 0
r 16.101269146 _38_ RTR  --- 16 cbr 512 [0 0 0 0] ------- [38:0 39:0 32 0] [16] 0 0
M 17.00000 0 (3968.12, 1075.30, 0.00), (3964.99, 1084.32), 9.55
M 17.00000 4 (1551.89, 759.61, 0.00), (1539.72, 761.27), 12.29
M 17.00000 1 (1462.81, 789.91, 0.00), (1465.32, 802.43), 12.77
M 17.00000 2 (3046.32, 492.67, 0.00), (3043.30, 479.11), 13.91
M 17.00000 3 (1664.04, 1618.19, 0.00), (1649.75, 1615.34), 14.56
s 17.119917941 _38_ AGT  --- 17 cbr 512 [0 0 0 0] ------- [38:0 39:0 32 0] [17] 0 0
r 17.119917941 _38_ RTR  --- 17 cbr 512 [0 0 0 0] ------- [38:0 39:0 32 0] [17] 0 0
M 18.00000 0 (3964.99, 1084.32, 0.00), (3961.24, 1095.13), 11.44
M 18.00000 4 (1539.72, 761.27, 0.00), (1530.60, 762.52), 9.20
M 18.00000 5 (3249.79, 1442.41, 0.00), (3249.79, 1442.41), 11.54
M 18.00000 1 (1465.32, 802.43, 0.00), (1468.46, 814.98), 12.94
M 18.00000 2 (3043.30, 479.11, 0.00), (3041.60, 465.60), 13.61
M 18.00000 3 (1649.76, 1615.34, 0.00), (1635.79, 1612.56), 14.23
s 18.086033877 _38_ AGT  --- 18 cbr 512 [0 0 0 0] ------- [38:0 39:0 32 0] [18] 0 0
r 18.086033877 _38_ RTR  --- 18 cbr 512 [0 0 0 0] ------- [38:0 39:0 32 0] [18] 0 0
M 19.00000 0 (3961.24, 1095.13, 0.00), (3956.88, 1107.69), 13.29
M 19.00000 4 (1530.61, 762.52, 0.00), (1525.94, 763.16), 4.70
M 19.00000 5 (3249.79, 1442.41, 0.00), (3239.12, 1442.31), 10.67
M 19.00000 6 (1158.81, 1295.97, 0.00), (1158.81, 1295.97), 14.53
M 19.00000 1 (1468.46, 814.98, 0.00), (1471.60, 827.52), 12.93
M 19.00000 2 (3041.60, 465.61, 0.00), (3039.87, 451.85), 13.85
M 19.00000 3 (1635.80, 1612.56, 0.00), (1621.43, 1609.69), 14.65
s 19.278340710 _38_ AGT  --- 19 cbr 512 [0 0 0 0] ------- [38:0 39:0 32 0] [19] 0 0
r 19.278340710 _38_ RTR  --- 19 cbr 512 [0 0 0 0] ------- [38:0 39:0 32 0] [19] 0 0
M 20.00000 0 (3956.88, 1107.68, 0.00), (3952.32, 1120.50), 13.59
M 20.00000 4 (1525.95, 763.16, 0.00), (1519.00, 762.97), 7.00
M 20.00000 5 (3239.12, 1442.31, 0.00), (3229.19, 1442.23), 9.93
M 20.00000 6 (1158.81, 1295.97, 0.00), (1145.24, 1294.19), 13.69
M 20.00000 7 (1106.10, 2163.58, 0.00), (1106.10, 2163.58), 24.61
M 20.00000 1 (1471.60, 827.52, 0.00), (1474.45, 839.48), 12.30
M 20.00000 2 (3039.87, 451.86, 0.00), (3038.18, 438.50), 13.46
M 20.00000 3 (1621.44, 1609.69, 0.00), (1607.10, 1606.84), 14.61
s 20.640407991 _38_ AGT  --- 20 cbr 512 [0 0 0 0] ------- [38:0 39:0 32 0] [20] 0 0
r 20.640407991 _38_ RTR  --- 20 cbr 512 [0 0 0 0] ------- [38:0 39:0 32 0] [20] 0 0
M 21.00000 0 (3952.32, 1120.49, 0.00), (3947.28, 1134.25), 14.65
M 21.00000 4 (1519.00, 762.97, 0.00), (1515.11, 757.24), 7.45
M 21.00000 5 (3229.19, 1442.23, 0.00), (3222.18, 1441.37), 7.06
M 21.00000 6 (1145.24, 1294.19, 0.00), (1130.96, 1292.32), 14.40
M 21.00000 7 (1106.10, 2163.58, 0.00), (1102.65, 2139.62), 24.19
M 21.00000 8 (1089.66, 1975.85, 0.00), (1089.66, 1975.85), 26.05
M 21.00000 1 (1474.45, 839.48, 0.00), (1477.53, 852.09), 12.98
M 21.00000 2 (3038.18, 438.51, 0.00), (3029.87, 431.99), 13.44
M 21.00000 3 (1607.11, 1606.84, 0.00), (1594.22, 1604.27), 13.13
D 21.500000000 _38_ RTR NRTE 0 cbr 532 [0 0 0 0] ------- [38:0 39:0 30 0] [0] 0 0
D 21.500000000 _38_ RTR NRTE 1 cbr 532 [0 0 0 0] ------- [38:0 39:0 30 0] [1] 0 0
D 21.500000000 _38_ RTR NRTE 2 cbr 532 [0 0 0 0] ------- [38:0 39:0 30 0] [2] 0 0
D 21.500000000 _38_ RTR NRTE 3 cbr 532 [0 0 0 0] ------- [38:0 39:0 30 0] [3] 0 0
D 21.500000000 _38_ RTR NRTE 4 cbr 532 [0 0 0 0] ------- [38:0 39:0 30 0] [4] 0 0
D 21.500000000 _38_ RTR NRTE 5 cbr 532 [0 0 0 0] ------- [38:0 39:0 30 0] [5] 0 0
D 21.500000000 _38_ RTR NRTE 6 cbr 532 [0 0 0 0] ------- [38:0 39:0 30 0] [6] 0 0
D 21.500000000 _38_ RTR NRTE 7 cbr 532 [0 0 0 0] ------- [38:0 39:0 30 0] [7] 0 0
D 21.500000000 _38_ RTR NRTE 8 cbr 532 [0 0 0 0] ------- [38:0 39:0 30 0] [8] 0 0
D 21.500000000 _38_ RTR NRTE 9 cbr 532 [0 0 0 0] ------- [38:0 39:0 30 0] [9] 0 0
D 21.500000000 _38_ RTR NRTE 10 cbr 532 [0 0 0 0] ------- [38:0 39:0 30 0] [10] 0 0
D 21.500000000 _38_ RTR NRTE 11 cbr 532 [0 0 0 0] ------- [38:0 39:0 30 0] [11] 0 0
D 21.500000000 _38_ RTR NRTE 12 cbr 532 [0 0 0 0] ------- [38:0 39:0 30 0] [12] 0 0
D 21.500000000 _38_ RTR NRTE 13 cbr 532 [0 0 0 0] ------- [38:0 39:0 30 0] [13] 0 0
D 21.500000000 _38_ RTR NRTE 14 cbr 532 [0 0 0 0] ------- [38:0 39:0 30 0] [14] 0 0
D 21.500000000 _38_ RTR NRTE 15 cbr 532 [0 0 0 0] ------- [38:0 39:0 30 0] [15] 0 0
D 21.500000000 _38_ RTR NRTE 16 cbr 532 [0 0 0 0] ------- [38:0 39:0 30 0] [16] 0 0
D 21.500000000 _38_ RTR NRTE 17 cbr 532 [0 0 0 0] ------- [38:0 39:0 30 0] [17] 0 0
D 21.500000000 _38_ RTR NRTE 18 cbr 532 [0 0 0 0] ------- [38:0 39:0 30 0] [18] 0 0
D 21.500000000 _38_ RTR NRTE 19 cbr 532 [0 0 0 0] ------- [38:0 39:0 30 0] [19] 0 0
D 21.500000000 _38_ RTR NRTE 20 cbr 532 [0 0 0 0] ------- [38:0 39:0 30 0] [20] 0 0
s 21.980233193 _38_ AGT  --- 21 cbr 512 [0 0 0 0] ------- [38:0 39:0 32 0] [21] 0 0
r 21.980233193 _38_ RTR  --- 21 cbr 512 [0 0 0 0] ------- [38:0 39:0 32 0] [21] 0 0
M 22.00000 0 (3947.28, 1134.24, 0.00), (3942.19, 1148.04), 14.70
M 22.00000 4 (1515.11, 757.24, 0.00), (1513.50, 748.63), 8.76
M 22.00000 5 (3222.18, 1441.37, 0.00), (3215.95, 1439.92), 6.41
M 22.00000 6 (1130.96, 1292.32, 0.00), (1117.19, 1290.52), 13.88
M 22.00000 7 (1102.65, 2139.64, 0.00), (1099.83, 2115.60), 24.19
M 22.00000 8 (1089.66, 1975.85, 0.00), (1087.72, 1950.02), 25.89
M 22.00000 9 (1785.50, 699.87, 0.00), (1785.50, 699.87), 8.05
M 22.00000 1 (1477.53, 852.09, 0.00), (1480.62, 864.26), 12.55
M 22.00000 2 (3029.87, 431.99, 0.00), (3017.51, 435.39), 12.82
M 22.00000 3 (1594.23, 1604.27, 0.00), (1585.10, 1602.45), 9.30
s 22.697392653 _38_ AGT  --- 22 cbr 512 [0 0 0 0] ------- [38:0 39:0 32 0] [22] 0 0
r 22.697392653 _38_ RTR  --- 22 cbr 512 [0 0 0 0] ------- [38:0 39:0 32 0] [22] 0 0
M 23.00000 0 (3942.19, 1148.03, 0.00), (3937.12, 1161.78), 14.65
M 23.00000 4 (1513.50, 748.63, 0.00), (1511.59, 738.39), 10.41
M 23.00000 5 (3215.95, 1439.92, 0.00), (3212.14, 1434.91), 6.53
M 23.00000 6 (1117.20, 1290.52, 0.00), (1106.10, 1289.06), 11.19
M 23.00000 7 (1099.83, 2115.61, 0.00), (1098.22, 2092.24), 23.41
M 23.00000 8 (1087.72, 1950.03, 0.00), (1085.87, 1925.23), 24.85
M 23.00000 9 (1785.50, 699.87, 0.00), (1779.61, 704.04), 7.22
M 23.00000 10 (3841.61, 1848.97, 0.00), (3841.61, 1848.97), 24.23
M 23.00000 1 (1480.62, 864.25, 0.00), (1483.78, 876.73), 12.86
M 23.00000 2 (3017.51, 435.39, 0.00), (3003.99, 439.11), 14.02
M 23.00000 3 (1585.11, 1602.45, 0.00), (1580.87, 1600.51), 4.80
s 23.438618281 _38_ AGT  --- 23 cbr 512 [0 0 0 0] ------- [38:0 39:0 32 0] [23] 0 0
r 23.438618281 _38_ RTR  --- 23 cbr 512 [0 0 0 0] ------- [38:0 39:0 32 0] [23] 0 0
M 24.00000 0 (3937.12, 1161.78, 0.00), (3931.95, 1175.55), 14.70
M 24.00000 4 (1511.59, 738.40, 0.00), (1509.32, 726.22), 12.38
M 24.00000 5 (3212.14, 1434.91, 0.00), (3212.59, 1428.70), 6.25
M 24.00000 6 (1106.10, 1289.06, 0.00), (1099.47, 1288.12), 6.69
M 24.00000 7 (1098.22, 2092.26, 0.00), (1096.55, 2068.08), 24.21
M 24.00000 8 (1085.87, 1925.25, 0.00), (1083.80, 1899.80), 25.50
M 24.00000 9 (1779.61, 704.04, 0.00), (1775.11, 707.42), 5.63
M 24.00000 10 (3841.61, 1848.97, 0.00), (3848.94, 1826.29), 23.84
M 24.00000 1 (1483.78, 876.72, 0.00), (1486.13, 885.96), 9.53
M 24.00000 2 (3003.99, 439.11, 0.00), (2991.42, 442.57), 13.04
M 24.00000 3 (1580.87, 1600.51, 0.00), (1579.43, 1593.63), 7.24
s 24.789724833 _38_ AGT  --- 24 cbr 512 [0 0 0 0] ------- [38:0 39:0 32 0] [24] 0 0
r 24.789724833 _38_ RTR  --- 24 cbr 512 [0 0 0 0] ------- [38:0 39:0 32 0] [24] 0 0
M 25.00000 0 (3931.95, 1175.54, 0.00), (3927.06, 1188.39), 13.75
M 25.00000 4 (1509.32, 726.23, 0.00), (1507.00, 712.83), 13.62
M 25.00000 5 (3212.59, 1428.70, 0.00), (3213.90, 1421.06), 7.75
M 25.00000 6 (1099.48, 1288.12, 0.00), (1094.23, 1287.73), 5.27
M 25.00000 7 (1096.55, 2068.11, 0.00), (1094.74, 2043.74), 24.40
M 25.00000 8 (1083.80, 1899.84, 0.00), (1081.73, 1874.32), 25.56
M 25.00000 9 (1775.11, 707.42, 0.00), (1773.16, 711.92), 5.14
M 25.00000 10 (3848.94, 1826.29, 0.00), (3856.81, 1803.68), 23.94
M 25.00000 1 (1486.13, 885.95, 0.00), (1487.48, 891.29), 5.50
M 25.00000 2 (2991.42, 442.57, 0.00), (2978.70, 446.04), 13.19
M 25.00000 3 (1579.43, 1593.63, 0.00), (1580.24, 1586.79), 6.90
s 25.967073776 _38_ AGT  --- 25 cbr 512 [0 0 0 0] ------- [38:0 39:0 32 0] [25] 0 0
r 25.967073776 _38_ RTR  --- 25 cbr 512 [0 0 0 0] ------- [38:0 39:0 32 0] [25] 0 0
M 26.00000 0 (3927.06, 1188.39, 0.00), (3921.82, 1202.10), 14.67
M 26.00000 4 (1507.00, 712.83, 0.00), (1517.05, 705.70), 14.18
M 26.00000 5 (3213.90, 1421.06, 0.00), (3215.61, 1415.90), 5.48
M 26.00000 6 (1094.23, 1287.73, 0.00), (1091.11, 1292.06), 5.84
M 26.00000 7 (1094.74, 2043.77, 0.00), (1092.94, 2019.66), 24.14
M 26.00000 8 (1081.73, 1874.36, 0.00), (1079.69, 1849.36), 25.04
M 26.00000 9 (1773.16, 711.92, 0.00), (1774.74, 715.88), 4.27
M 26.00000 10 (3856.81, 1803.68, 0.00), (3864.72, 1780.98), 24.03
M 26.00000 1 (1487.48, 891.29, 0.00), (1487.75, 895.88), 4.64
M 26.00000 2 (2978.70, 446.04, 0.00), (2965.67, 449.55), 13.49
M 26.00000 3 (1580.24, 1586.79, 0.00), (1581.42, 1578.01), 8.86
M 27.00000 0 (3921.82, 1202.09, 0.00), (3916.70, 1215.49), 14.33
M 27.00000 4 (1517.05, 705.70, 0.00), (1530.21, 704.15), 13.25
M 27.00000 5 (3215.61, 1415.90, 0.00), (3220.87, 1412.48), 6.50
M 27.00000 6 (1091.11, 1292.06, 0.00), (1091.16, 1297.40), 5.35
M 27.00000 7 (1092.94, 2019.70, 0.00), (1091.15, 1995.79), 23.93
M 27.00000 8 (1079.69, 1849.40, 0.00), (1077.79, 1824.30), 25.13
M 27.00000 9 (1774.74, 715.88, 0.00), (1777.63, 718.85), 4.25
M 27.00000 10 (3864.72, 1780.99, 0.00), (3872.39, 1758.95), 23.32
M 27.00000 1 (1487.75, 895.88, 0.00), (1483.94, 898.04), 4.85
M 27.00000 2 (2965.67, 449.55, 0.00), (2953.22, 452.90), 12.89
M 27.00000 3 (1581.42, 1578.01, 0.00), (1582.93, 1566.77), 11.34
s 27.229305669 _38_ AGT  --- 26 cbr 512 [0 0 0 0] ------- [38:0 39:0 32 0] [26] 0 0
r 27.229305669 _38_ RTR  --- 26 cbr 512 [0 0 0 0] ------- [38:0 39:0 32 0] [26] 0 0
M 28.00000 0 (3916.71, 1215.48, 0.00), (3911.51, 1229.07), 14.54
M 28.00000 4 (1530.21, 704.15, 0.00), (1544.05, 702.52), 13.94
M 28.00000 5 (3220.87, 1412.48, 0.00), (3227.53, 1412.50), 6.67
M 28.00000 6 (1091.16, 1297.40, 0.00), (1091.38, 1305.06), 7.67
M 28.00000 7 (1091.15, 1995.84, 0.00), (1089.39, 1972.26), 23.59
M 28.00000 8 (1077.79, 1824.34, 0.00), (1074.70, 1799.62), 24.87
M 28.00000 9 (1777.63, 718.85, 0.00), (1781.99, 717.51), 4.78
M 28.00000 10 (3872.38, 1758.97, 0.00), (3880.07, 1736.89), 23.35
M 28.00000 11 (2654.94, 1762.45, 0.00), (2654.94, 1762.45), 28.51
M 28.00000 1 (1483.94, 898.04, 0.00), (1477.30, 898.08), 6.64
M 28.00000 2 (2953.23, 452.90, 0.00), (2940.02, 456.45), 13.67
M 28.00000 3 (1582.93, 1566.77, 0.00), (1584.35, 1556.23), 10.64
s 28.634251138 _38_ AGT  --- 27 cbr 512 [0 0 0 0] ------- [38:0 39:0 32 0] [27] 0 0
r 28.634251138 _38_ RTR  --- 27 cbr 512 [0 0 0 0] ------- [38:0 39:0 32 0] [27] 0 0
M 29.00000 0 (3911.51, 1229.06, 0.00), (3906.75, 1242.52), 14.28
M 29.00000 4 (1544.05, 702.52, 0.00), (1557.29, 700.95), 13.33
M 29.00000 5 (3227.53, 1412.50, 0.00), (3236.10, 1413.10), 8.59
M 29.00000 6 (1091.38, 1305.06, 0.00), (1091.67, 1315.19), 10.13
M 29.00000 7 (1089.39, 1972.31, 0.00), (1087.63, 1948.84), 23.48
M 29.00000 8 (1074.71, 1799.67, 0.00), (1069.08, 1774.69), 25.57
M 29.00000 9 (1781.99, 717.51, 0.00), (1785.43, 714.66), 4.47
M 29.00000 10 (3880.06, 1736.91, 0.00), (3887.76, 1714.82), 23.37
M 29.00000 11 (2654.94, 1762.45, 0.00), (2627.18, 1756.52), 28.38
M 29.00000 1 (1477.30, 898.08, 0.00), (1468.69, 898.13), 8.62
M 29.00000 2 (2940.03, 456.45, 0.00), (2927.04, 459.95), 13.45
M 29.00000 3 (1584.35, 1556.23, 0.00), (1585.39, 1548.55), 7.75
s 29.539770215 _38_ AGT  --- 28 cbr 512 [0 0 0 0] ------- [38:0 39:0 32 0] [28] 0 0
r 29.539770215 _38_ RTR  --- 28 cbr 512 [0 0 0 0] ------- [38:0 39:0 32 0] [28] 0 0
M 30.00000 0 (3906.75, 1242.52, 0.00), (3902.64, 1255.79), 13.90
M 30.00000 4 (1557.29, 700.95, 0.00), (1571.17, 699.13), 14.00
M 30.00000 5 (3236.10, 1413.10, 0.00), (3246.48, 1413.82), 10.40
M 30.00000 6 (1091.67, 1315.19, 0.00), (1092.01, 1327.04), 11.86
M 30.00000 7 (1087.63, 1948.90, 0.00), (1085.86, 1925.11), 23.79
M 30.00000 8 (1069.09, 1774.72, 0.00), (1062.37, 1749.70), 25.88
M 30.00000 9 (1785.43, 714.66, 0.00), (1790.79, 710.20), 6.97
M 30.00000 10 (3887.75, 1714.84, 0.00), (3895.53, 1692.50), 23.63
M 30.00000 11 (2627.19, 1756.52, 0.00), (2600.02, 1750.72), 27.77
M 30.00000 12 (1658.72, 590.36, 0.00), (1658.72, 590.36), 14.54
M 30.00000 1 (1468.69, 898.13, 0.00), (1458.35, 898.19), 10.34
M 30.00000 2 (2927.04, 459.95, 0.00), (2916.39, 462.81), 11.02
M 30.00000 3 (1585.39, 1548.55, 0.00), (1586.60, 1539.44), 9.19
s 30.148968687 _38_ AGT  --- 29 cbr 512 [0 0 0 0] ------- [38:0 39:0 32 0] [29] 0 0
r 30.148968687 _38_ RTR  --- 29 cbr 512 [0 0 0 0] ------- [38:0 39:0 32 0] [29] 0 0
M 31.00000 0 (3902.64, 1255.79, 0.00), (3898.58, 1269.70), 14.48
M 31.00000 4 (1571.17, 699.13, 0.00), (1585.20, 697.04), 14.19
M 31.00000 5 (3246.47, 1413.82, 0.00), (3256.91, 1414.54), 10.45
M 31.00000 6 (1092.01, 1327.04, 0.00), (1092.39, 1340.69), 13.65
M 31.00000 7 (1085.86, 1925.17, 0.00), (1083.97, 1901.85), 23.33
M 31.00000 8 (1062.38, 1749.73, 0.00), (1055.13, 1724.84), 25.88
M 31.00000 9 (1790.79, 710.20, 0.00), (1797.80, 704.35), 9.13
M 31.00000 10 (3895.52, 1692.53, 0.00), (3903.25, 1670.31), 23.48
M 31.00000 11 (2600.03, 1750.72, 0.00), (2572.30, 1744.80), 28.35
M 31.00000 12 (1658.72, 590.36, 0.00), (1645.58, 592.33), 13.29
M 31.00000 1 (1458.35, 898.19, 0.00), (1446.11, 898.27), 12.23
M 31.00000 2 (2916.40, 462.81, 0.00), (2909.21, 464.74), 7.44
M 31.00000 3 (1586.60, 1539.44, 0.00), (1588.02, 1528.65), 10.88
s 31.053176215 _38_ AGT  --- 30 cbr 512 [0 0 0 0] ------- [38:0 39:0 32 0] [30] 0 0
r 31.053176215 _38_ RTR  --- 30 cbr 512 [0 0 0 0] ------- [38:0 39:0 32 0] [30] 0 0
s 31.500000000 _38_ RTR  --- 0 AODV 48 [0 0 0 0] ------- [38:255 -1:255 30 0] [0x2 1 5 [39 0] [38 12]] (REQUEST)
s 31.500595000 _38_ MAC  --- 0 AODV 106 [0 ffffffff 26 800] ------- [38:255 -1:255 30 0] [0x2 1 5 [39 0] [38 12]] (REQUEST)
s 31.740541457 _38_ AGT  --- 31 cbr 512 [0 0 0 0] ------- [38:0 39:0 32 0] [31] 0 0
r 31.740541457 _38_ RTR  --- 31 cbr 512 [0 0 0 0] ------- [38:0 39:0 32 0] [31] 0 0
M 32.00000 0 (3898.58, 1269.69, 0.00), (3894.81, 1282.64), 13.49
M 32.00000 4 (1585.20, 697.04, 0.00), (1598.19, 695.05), 13.15
M 32.00000 5 (3256.90, 1414.54, 0.00), (3267.97, 1415.31), 11.09
M 32.00000 6 (1092.39, 1340.68, 0.00), (1092.71, 1354.88), 14.19
M 32.00000 7 (1083.98, 1901.92, 0.00), (1082.06, 1878.37), 23.55
M 32.00000 8 (1055.14, 1724.88, 0.00), (1048.10, 1700.69), 25.14
M 32.00000 9 (1797.80, 704.35, 0.00), (1805.87, 697.63), 10.50
M 32.00000 10 (3903.24, 1670.35, 0.00), (3910.84, 1648.54), 23.06
M 32.00000 11 (2572.30, 1744.80, 0.00), (2544.84, 1738.78), 28.12
M 32.00000 12 (1645.58, 592.33, 0.00), (1632.00, 594.36), 13.73
M 32.00000 13 (1386.59, 1596.70, 0.00), (1386.59, 1596.70), 15.60
M 32.00000 1 (1446.12, 898.27, 0.00), (1433.50, 898.35), 12.61
M 32.00000 2 (2909.21, 464.74, 0.00), (2905.60, 465.71), 3.74
M 32.00000 3 (1588.02, 1528.65, 0.00), (1589.71, 1515.58), 13.18
M 33.00000 0 (3894.81, 1282.64, 0.00), (3890.95, 1295.83), 13.74
M 33.00000 4 (1598.19, 695.05, 0.00), (1612.17, 692.91), 14.14
M 33.00000 5 (3267.96, 1415.31, 0.00), (3278.50, 1417.16), 10.81
M 33.00000 6 (1092.71, 1354.87, 0.00), (1092.74, 1369.23), 14.34
M 33.00000 7 (1082.07, 1878.45, 0.00), (1080.06, 1853.88), 24.56
M 33.00000 8 (1048.11, 1700.74, 0.00), (1041.06, 1676.50), 25.20
M 33.00000 9 (1805.87, 697.63, 0.00), (1813.14, 691.58), 9.46
M 33.00000 10 (3910.83, 1648.58, 0.00), (3918.40, 1626.83), 22.98
M 33.00000 11 (2544.84, 1738.78, 0.00), (2518.05, 1732.79), 27.46
M 33.00000 12 (1632.00, 594.36, 0.00), (1618.12, 596.45), 14.04
M 33.00000 13 (1386.59, 1596.70, 0.00), (1371.81, 1593.66), 15.09
M 33.00000 1 (1433.51, 898.35, 0.00), (1420.62, 898.43), 12.88
M 33.00000 2 (2905.60, 465.71, 0.00), (2902.96, 464.70), 3.13
M 33.00000 3 (1589.71, 1515.58, 0.00), (1591.03, 1505.34), 10.33
s 33.131889278 _38_ AGT  --- 32 cbr 512 [0 0 0 0] ------- [38:0 39:0 32 0] [32] 0 0
r 33.131889278 _38_ RTR  --- 32 cbr 512 [0 0 0 0] ------- [38:0 39:0 32 0] [32] 0 0
s 33.500000000 _38_ RTR  --- 0 AODV 48 [0 0 0 0] ------- [38:255 -1:255 30 0] [0x2 1 6 [39 0] [38 14]] (REQUEST)
s 33.500135000 _38_ MAC  --- 0 AODV 106 [0 ffffffff 26 800] ------- [38:255 -1:255 30 0] [0x2 1 6 [39 0] [38 14]] (REQUEST)
s 33.743920594 _38_ AGT  --- 33 cbr 512 [0 0 0 0] ------- [38:0 39:0 32 0] [33] 0 0
r 33.743920594 _38_ RTR  --- 33 cbr 512 [0 0 0 0] ------- [38:0 39:0 32 0] [33] 0 0
M 34.00000 0 (3890.95, 1295.83, 0.00), (3886.85, 1309.43), 14.20
M 34.00000 4 (1612.17, 692.91, 0.00), (1625.72, 690.80), 13.72
M 34.00000 5 (3278.50, 1417.16, 0.00), (3286.42, 1424.42), 10.84
M 34.00000 6 (1092.74, 1369.21, 0.00), (1092.60, 1382.53), 13.30
M 34.00000 7 (1080.07, 1853.97, 0.00), (1078.19, 1829.63), 24.31
M 34.00000 8 (1041.07, 1676.54, 0.00), (1033.88, 1651.82), 25.70
M 34.00000 9 (1813.14, 691.58, 0.00), (1816.94, 688.40), 4.96
M 34.00000 10 (3918.38, 1626.88, 0.00), (3926.27, 1604.21), 23.95
M 34.00000 11 (2518.05, 1732.79, 0.00), (2490.80, 1726.75), 27.91
M 34.00000 12 (1618.12, 596.45, 0.00), (1612.56, 606.31), 13.46
M 34.00000 13 (1371.81, 1593.66, 0.00), (1357.41, 1591.19), 14.61
M 34.00000 1 (1420.63, 898.43, 0.00), (1408.61, 898.48), 12.02
M 34.00000 2 (2902.96, 464.70, 0.00), (2905.37, 462.46), 3.60
M 34.00000 3 (1591.03, 1505.34, 0.00), (1591.87, 1498.79), 6.60
s 34.838947982 _38_ AGT  --- 34 cbr 512 [0 0 0 0] ------- [38:0 39:0 32 0] [34] 0 0
r 34.838947982 _38_ RTR  --- 34 cbr 512 [0 0 0 0] ------- [38:0 39:0 32 0] [34] 0 0
M 35.00000 0 (3886.85, 1309.42, 0.00), (3882.51, 1323.47), 14.70
M 35.00000 4 (1625.72, 690.80, 0.00), (1639.47, 688.61), 13.92
M 35.00000 5 (3286.42, 1424.42, 0.00), (3297.06, 1426.46), 10.88
M 35.00000 6 (1092.60, 1382.51, 0.00), (1092.45, 1396.97), 14.45
M 35.00000 7 (1078.20, 1829.73, 0.00), (1075.49, 1805.43), 24.35
M 35.00000 8 (1033.89, 1651.87, 0.00), (1026.82, 1627.51), 25.32
M 35.00000 9 (1816.94, 688.40, 0.00), (1820.38, 686.62), 3.97
M 35.00000 10 (3926.25, 1604.26, 0.00), (3934.01, 1581.98), 23.53
M 35.00000 11 (2490.80, 1726.75, 0.00), (2462.95, 1720.70), 28.50
M 35.00000 12 (1612.56, 606.31, 0.00), (1613.66, 620.77), 14.50
M 35.00000 13 (1357.41, 1591.19, 0.00), (1342.26, 1588.74), 15.35
M 35.00000 1 (1408.61, 898.48, 0.00), (1395.59, 898.38), 13.02
M 35.00000 2 (2905.37, 462.46, 0.00), (2910.88, 460.98), 5.70
M 35.00000 3 (1591.87, 1498.79, 0.00), (1593.00, 1490.17), 8.69
s 35.674610740 _38_ AGT  --- 35 cbr 512 [0 0 0 0] ------- [38:0 39:0 32 0] [35] 0 0
r 35.674610740 _38_ RTR  --- 35 cbr 512 [0 0 0 0] ------- [38:0 39:0 32 0] [35] 0 0
M 36.00000 0 (3882.51, 1323.47, 0.00), (3878.29, 1337.10), 14.27
M 36.00000 4 (1639.47, 688.61, 0.00), (1652.85, 686.48), 13.55
M 36.00000 5 (3297.06, 1426.46, 0.00), (3307.27, 1427.67), 10.28
M 36.00000 6 (1092.45, 1396.96, 0.00), (1092.30, 1411.24), 14.28
M 36.00000 7 (1075.50, 1805.53, 0.00), (1070.98, 1782.18), 23.72
M 36.00000 8 (1026.83, 1627.55, 0.00), (1019.59, 1602.61), 25.92
M 36.00000 9 (1820.38, 686.62, 0.00), (1824.20, 688.42), 4.30
M 36.00000 10 (3933.99, 1582.03, 0.00), (3941.85, 1559.47), 23.83
M 36.00000 11 (2462.95, 1720.70, 0.00), (2436.30, 1714.91), 27.27
M 36.00000 12 (1613.66, 620.77, 0.00), (1614.43, 630.74), 10.00
M 36.00000 13 (1342.26, 1588.74, 0.00), (1327.20, 1586.30), 15.26
M 36.00000 1 (1395.59, 898.38, 0.00), (1383.81, 898.29), 11.79
M 36.00000 2 (2910.87, 460.98, 0.00), (2917.77, 459.13), 7.14
M 36.00000 3 (1593.00, 1490.18, 0.00), (1594.37, 1479.85), 10.42
s 36.297714236 _38_ AGT  --- 36 cbr 512 [0 0 0 0] ------- [38:0 39:0 32 0] [36] 0 0
r 36.297714236 _38_ RTR  --- 36 cbr 512 [0 0 0 0] ------- [38:0 39:0 32 0] [36] 0 0
M 37.00000 0 (3878.29, 1337.10, 0.00), (3874.29, 1350.03), 13.53
M 37.00000 4 (1652.85, 686.48, 0.00), (1666.97, 684.22), 14.31
M 37.00000 5 (3307.27, 1427.67, 0.00), (3318.07, 1428.94), 10.87
M 37.00000 6 (1092.30, 1411.24, 0.00), (1092.19, 1425.39), 14.14
M 37.00000 7 (1070.99, 1782.24, 0.00), (1064.94, 1758.52), 24.42
M 37.00000 8 (1019.60, 1602.66, 0.00), (1012.62, 1578.63), 24.98
M 37.00000 9 (1824.20, 688.42, 0.00), (1826.20, 689.56), 5.67
M 37.00000 10 (3941.83, 1559.53, 0.00), (3949.04, 1538.84), 21.84
M 37.00000 11 (2436.30, 1714.91, 0.00), (2409.31, 1709.07), 27.62
M 37.00000 12 (1614.43, 630.74, 0.00), (1618.04, 635.73), 6.70
M 37.00000 13 (1327.20, 1586.30, 0.00), (1312.56, 1583.93), 14.82
M 37.00000 1 (1383.81, 898.29, 0.00), (1371.52, 898.20), 12.29
M 37.00000 2 (2917.77, 459.13, 0.00), (2926.37, 456.81), 8.90
M 37.00000 3 (1594.37, 1479.85, 0.00), (1596.08, 1467.22), 12.75
s 37.466338129 _38_ AGT  --- 37 cbr 512 [0 0 0 0] ------- [38:0 39:0 32 0] [37] 0 0
r 37.466338129 _38_ RTR  --- 37 cbr 512 [0 0 0 0] ------- [38:0 39:0 32 0] [37] 0 0
s 37.466338129 _38_ RTR  --- 0 AODV 48 [0 0 0 0] ------- [38:255 -1:255 30 0] [0x2 1 7 [39 0] [38 16]] (REQUEST)
s 37.466893129 _38_ MAC  --- 0 AODV 106 [0 ffffffff 26 800] ------- [38:255 -1:255 30 0] [0x2 1 7 [39 0] [38 16]] (REQUEST)
M 38.00000 0 (3874.29, 1350.02, 0.00), (3871.03, 1360.56), 11.02
M 38.00000 4 (1666.97, 684.22, 0.00), (1680.70, 682.03), 13.90
M 38.00000 5 (3318.06, 1428.94, 0.00), (3328.75, 1428.70), 10.69
M 38.00000 6 (1092.19, 1425.38, 0.00), (1092.12, 1439.17), 13.78
M 38.00000 7 (1064.96, 1758.58, 0.00), (1058.12, 1735.11), 24.37
M 38.00000 8 (1012.63, 1578.67, 0.00), (1006.18, 1556.43), 23.12
M 38.00000 9 (1826.20, 689.56, 0.00), (1833.70, 690.99), 7.67
M 38.00000 10 (3949.02, 1538.91, 0.00), (3954.88, 1522.06), 17.77
M 38.00000 11 (2409.31, 1709.07, 0.00), (2382.06, 1703.24), 27.87
M 38.00000 12 (1618.04, 635.73, 0.00), (1623.95, 635.41), 5.97
M 38.00000 13 (1312.57, 1583.93, 0.00), (1297.27, 1581.46), 15.49
M 38.00000 1 (1371.52, 898.20, 0.00), (1358.82, 898.10), 12.71
M 38.00000 2 (2926.36, 456.81, 0.00), (2936.39, 454.12), 10.38
M 38.00000 3 (1596.08, 1467.22, 0.00), (1597.98, 1453.21), 14.14
s 38.223331868 _38_ AGT  --- 38 cbr 512 [0 0 0 0] ------- [38:0 39:0 32 0] [38] 0 0
r 38.223331868 _38_ RTR  --- 38 cbr 512 [0 0 0 0] ------- [38:0 39:0 32 0] [38] 0 0
M 39.00000 0 (3871.03, 1360.55, 0.00), (3868.76, 1367.32), 7.15
M 39.00000 4 (1680.70, 682.03, 0.00), (1693.84, 679.93), 13.31
M 39.00000 5 (3328.75, 1428.70, 0.00), (3339.65, 1428.01), 10.93
M 39.00000 6 (1092.12, 1439.16, 0.00), (1092.06, 1452.67), 13.50
M 39.00000 7 (1058.14, 1735.18, 0.00), (1051.52, 1712.41), 23.63
M 39.00000 8 (1006.19, 1556.47, 0.00), (1001.00, 1538.50), 18.74
M 39.00000 9 (1833.70, 690.99, 0.00), (1842.49, 696.08), 10.21
M 39.00000 10 (3954.86, 1522.12, 0.00), (3959.24, 1509.53), 13.27
M 39.00000 11 (2382.06, 1703.24, 0.00), (2355.29, 1697.44), 27.39
M 39.00000 12 (1623.95, 635.41, 0.00), (1631.25, 634.33), 7.38
M 39.00000 13 (1297.28, 1581.46, 0.00), (1283.03, 1579.15), 14.42