M 0.0 nn 40 x 5000 y 5000 rp AODV
M 0.0 sc scenario.txt cp ../cbr.txt seed 1.0
M 0.0 prop Propagation/TwoRayGround ant Antenna/OmniAntenna
M 0.00000 40 (1818.44, 1724.29, 0.00), (1818.44, 1724.29), 11.29
M 1.00000 40 (1818.44, 1724.29, 0.00), (1828.71, 1726.18), 10.45
M 1.00000 41 (1256.77, 1440.01, 0.00), (1256.77, 1440.01), 13.03
M 2.00000 40 (1828.71, 1726.18, 0.00), (1835.27, 1727.39), 6.67
M 2.00000 41 (1256.77, 1440.01, 0.00), (1268.49, 1441.50), 11.82
M 2.00000 42 (1623.87, 1426.14, 0.00), (1623.87, 1426.14), 14.03
s 2.556838879 _78_ AGT  --- 0 cbr 512 [0 0 0 0] [energy 100.000000 ei 0.000 es 0.000 et 0.000 er 0.000] ------- [78:0 79:0 32 0] [0] 0 0
r 2.556838879 _78_ RTR  --- 0 cbr 512 [0 0 0 0] [energy 100.000000 ei 0.000 es 0.000 et 0.000 er 0.000] ------- [78:0 79:0 32 0] [0] 0 0
s 2.556838879 _78_ RTR  --- 0 AODV 48 [0 0 0 0] [energy 100.000000 ei 0.000 es 0.000 et 0.000 er 0.000] ------- [78:255 -1:255 30 0] [0x2 1 1 [79 0] [78 4]] (REQUEST)
s 2.556953879 _78_ MAC  --- 0 AODV 106 [0 ffffffff 4e 800] [energy 100.000000 ei 0.000 es 0.000 et 0.000 er 0.000] ------- [78:255 -1:255 30 0] [0x2 1 1 [79 0] [78 4]] (REQUEST)
M 3.00000 40 (1835.27, 1727.39, 0.00), (1840.93, 1728.08), 5.72
M 3.00000 41 (1268.49, 1441.50, 0.00), (1280.51, 1443.02), 12.11
M 3.00000 42 (1623.87, 1426.14, 0.00), (1637.54, 1428.06), 13.81
s 3.057178456 _78_ AGT  --- 1 cbr 512 [0 0 0 0] [energy 98.720124 ei 1.278 es 0.000 et 0.001 er 0.000] ------- [78:0 79:0 32 0] [1] 0 0
r 3.057178456 _78_ RTR  --- 1 cbr 512 [0 0 0 0] [energy 98.720124 ei 1.278 es 0.000 et 0.001 er 0.000] ------- [78:0 79:0 32 0] [1] 0 0
s 3.645301127 _78_ AGT  --- 2 cbr 512 [0 0 0 0] [energy 98.720124 ei 1.278 es 0.000 et 0.001 er 0.000] ------- [78:0 79:0 32 0] [2] 0 0
r 3.645301127 _78_ RTR  --- 2 cbr 512 [0 0 0 0] [energy 98.720124 ei 1.278 es 0.000 et 0.001 er 0.000] ------- [78:0 79:0 32 0] [2] 0 0
M 4.00000 40 (1840.93, 1728.08, 0.00), (1844.81, 1724.03), 6.00
M 4.00000 41 (1280.50, 1443.02, 0.00), (1292.57, 1444.54), 12.15
M 4.00000 42 (1637.54, 1428.06, 0.00), (1650.74, 1429.92), 13.32
s 4.500000000 _78_ RTR  --- 0 AODV 48 [0 0 0 0] [energy 98.720124 ei 1.278 es 0.000 et 0.001 er 0.000] ------- [78:255 -1:255 30 0] [0x2 1 2 [79 0] [78 6]] (REQUEST)
s 4.500075000 _78_ MAC  --- 0 AODV 106 [0 ffffffff 4e 800] [energy 98.720124 ei 1.278 es 0.000 et 0.001 er 0.000] ------- [78:255 -1:255 30 0] [0x2 1 2 [79 0] [78 6]] (REQUEST)
s 4.586474509 _78_ AGT  --- 3 cbr 512 [0 0 0 0] [energy 97.747588 ei 2.250 es 0.000 et 0.003 er 0.000] ------- [78:0 79:0 32 0] [3] 0 0
r 4.586474509 _78_ RTR  --- 3 cbr 512 [0 0 0 0] [energy 97.747588 ei 2.250 es 0.000 et 0.003 er 0.000] ------- [78:0 79:0 32 0] [3] 0 0
M 5.00000 40 (1844.81, 1724.03, 0.00), (1846.05, 1717.67), 6.48
M 5.00000 41 (1292.56, 1444.54, 0.00), (1304.79, 1446.08), 12.32
M 5.00000 42 (1650.73, 1429.92, 0.00), (1664.11, 1431.80), 13.51
M 5.00000 43 (1408.93, 1112.15, 0.00), (1408.93, 1112.15), 15.04
s 5.902950561 _78_ AGT  --- 4 cbr 512 [0 0 0 0] [energy 97.747588 ei 2.250 es 0.000 et 0.003 er 0.000] ------- [78:0 79:0 32 0] [4] 0 0
r 5.902950561 _78_ RTR  --- 4 cbr 512 [0 0 0 0] [energy 97.747588 ei 2.250 es 0.000 et 0.003 er 0.000] ------- [78:0 79:0 32 0] [4] 0 0
M 6.00000 40 (1846.05, 1717.67, 0.00), (1847.47, 1709.94), 7.86
M 6.00000 41 (1304.78, 1446.08, 0.00), (1314.14, 1447.27), 9.43
M 6.00000 42 (1664.11, 1431.80, 0.00), (1676.93, 1433.61), 12.94
M 6.00000 43 (1408.93, 1112.15, 0.00), (1423.24, 1114.04), 14.43
M 6.00000 44 (4307.29, 1305.36, 0.00), (4307.29, 1305.36), 14.31
s 6.637552313 _78_ AGT  --- 5 cbr 512 [0 0 0 0] [energy 97.747588 ei 2.250 es 0.000 et 0.003 er 0.000] ------- [78:0 79:0 32 0] [5] 0 0
r 6.637552313 _78_ RTR  --- 5 cbr 512 [0 0 0 0] [energy 97.747588 ei 2.250 es 0.000 et 0.003 er 0.000] ------- [78:0 79:0 32 0] [5] 0 0
M 7.00000 40 (1847.47, 1709.94, 0.00), (1848.61, 1703.67), 6.38
M 7.00000 41 (1314.14, 1447.27, 0.00), (1320.23, 1448.04), 6.14
M 7.00000 42 (1676.92, 1433.61, 0.00), (1689.82, 1435.42), 13.03
M 7.00000 43 (1423.24, 1114.04, 0.00), (1437.00, 1115.78), 13.87
M 7.00000 44 (4307.29, 1305.36, 0.00), (4300.80, 1316.91), 13.25
M 7.00000 45 (1807.48, 904.51, 0.00), (1807.48, 904.51), 2.31
s 7.776417456 _78_ AGT  --- 6 cbr 512 [0 0 0 0] [energy 97.747588 ei 2.250 es 0.000 et 0.003 er 0.000] ------- [78:0 79:0 32 0] [6] 0 0
r 7.776417456 _78_ RTR  --- 6 cbr 512 [0 0 0 0] [energy 97.747588 ei 2.250 es 0.000 et 0.003 er 0.000] ------- [78:0 79:0 32 0] [6] 0 0
M 8.00000 40 (1848.61, 1703.67, 0.00), (1849.20, 1700.46), 3.26
M 8.00000 41 (1320.23, 1448.04, 0.00), (1325.70, 1446.48), 6.01
M 8.00000 42 (1689.82, 1435.42, 0.00), (1702.90, 1437.26), 13.20
M 8.00000 43 (1437.00, 1115.78, 0.00), (1451.75, 1117.64), 14.87
M 8.00000 44 (4300.80, 1316.91, 0.00), (4294.34, 1328.32), 13.11
M 8.00000 45 (1807.48, 904.51, 0.00), (1807.31, 903.04), 1.48
M 8.00000 46 (1146.62, 895.20, 0.00), (1146.62, 895.20), 14.53
s 8.500000000 _78_ RTR  --- 0 AODV 48 [0 0 0 0] [energy 97.747588 ei 2.250 es 0.000 et 0.003 er 0.000] ------- [78:255 -1:255 30 0] [0x2 1 3 [79 0] [78 8]] (REQUEST)
s 8.500315000 _78_ MAC  --- 0 AODV 106 [0 ffffffff 4e 800] [energy 97.747588 ei 2.250 es 0.000 et 0.003 er 0.000] ------- [78:255 -1:255 30 0] [0x2 1 3 [79 0] [78 8]] (REQUEST)
s 8.585496514 _78_ AGT  --- 7 cbr 512 [0 0 0 0] [energy 95.746493 ei 4.249 es 0.000 et 0.004 er 0.000] ------- [78:0 79:0 32 0] [7] 0 0
r 8.585496514 _78_ RTR  --- 7 cbr 512 [0 0 0 0] [energy 95.746493 ei 4.249 es 0.000 et 0.004 er 0.000] ------- [78:0 79:0 32 0] [7] 0 0
M 9.00000 40 (1849.20, 1700.46, 0.00), (1848.65, 1695.42), 5.80
M 9.00000 41 (1325.70, 1446.48, 0.00), (1327.30, 1440.90), 5.92
M 9.00000 42 (1702.89, 1437.26, 0.00), (1715.63, 1439.05), 12.85
M 9.00000 43 (1451.75, 1117.64, 0.00), (1466.08, 1119.45), 14.44
M 9.00000 44 (4294.34, 1328.32, 0.00), (4287.86, 1339.67), 13.07
M 9.00000 45 (1807.31, 903.04, 0.00), (1807.06, 900.96), 2.10
M 9.00000 46 (1146.62, 895.20, 0.00), (1132.48, 895.11), 14.14
M 9.00000 47 (1917.32, 1197.62, 0.00), (1917.32, 1197.62), 19.69
s 9.128291071 _78_ AGT  --- 8 cbr 512 [0 0 0 0] [energy 95.746493 ei 4.249 es 0.000 et 0.004 er 0.000] ------- [78:0 79:0 32 0] [8] 0 0
r 9.128291071 _78_ RTR  --- 8 cbr 512 [0 0 0 0] [energy 95.746493 ei 4.249 es 0.000 et 0.004 er 0.000] ------- [78:0 79:0 32 0] [8] 0 0
M 10.00000 40 (1848.65, 1695.42, 0.00), (1842.42, 1692.81), 6.92
M 10.00000 41 (1327.30, 1440.90, 0.00), (1328.26, 1433.01), 7.94
M 10.00000 42 (1715.62, 1439.05, 0.00), (1728.64, 1440.88), 13.14
M 10.00000 43 (1466.08, 1119.45, 0.00), (1480.71, 1121.30), 14.75
M 10.00000 44 (4287.86, 1339.67, 0.00), (4280.96, 1351.72), 13.89
M 10.00000 45 (1807.06, 900.96, 0.00), (1806.79, 898.68), 2.29
M 10.00000 46 (1132.48, 895.11, 0.00), (1118.04, 895.02), 14.44
M 10.00000 47 (1917.32, 1197.62, 0.00), (1900.42, 1188.79), 19.07
s 10.268358731 _78_ AGT  --- 9 cbr 512 [0 0 0 0] [energy 95.746493 ei 4.249 es 0.000 et 0.004 er 0.000] ------- [78:0 79:0 32 0] [9] 0 0
r 10.268358731 _78_ RTR  --- 9 cbr 512 [0 0 0 0] [energy 95.746493 ei 4.249 es 0.000 et 0.004 er 0.000] ------- [78:0 79:0 32 0] [9] 0 0
s 10.882166979 _78_ AGT  --- 10 cbr 512 [0 0 0 0] [energy 95.746493 ei 4.249 es 0.000 et 0.004 er 0.000] ------- [78:0 79:0 32 0] [10] 0 0
r 10.882166979 _78_ RTR  --- 10 cbr 512 [0 0 0 0] [energy 95.746493 ei 4.249 es 0.000 et 0.004 er 0.000] ------- [78:0 79:0 32 0] [10] 0 0
M 11.00000 40 (1842.42, 1692.81, 0.00), (1833.91, 1691.13), 8.67
M 11.00000 41 (1328.26, 1433.02, 0.00), (1329.44, 1423.31), 9.78
M 11.00000 42 (1728.63, 1440.88, 0.00), (1741.38, 1442.68), 12.87
M 11.00000 43 (1480.71, 1121.30, 0.00), (1492.64, 1122.81), 12.03
M 11.00000 44 (4280.96, 1351.72, 0.00), (4273.93, 1364.01), 14.15
M 11.00000 45 (1806.79, 898.69, 0.00), (1806.54, 896.54), 2.16
M 11.00000 46 (1118.04, 895.02, 0.00), (1104.31, 894.93), 13.73
M 11.00000 47 (1900.42, 1188.79, 0.00), (1883.35, 1179.80), 19.29
M 12.00000 40 (1833.91, 1691.13, 0.00), (1823.23, 1689.01), 10.89
M 12.00000 41 (1329.44, 1423.31, 0.00), (1330.90, 1411.28), 12.12
M 12.00000 42 (1741.37, 1442.68, 0.00), (1754.64, 1444.54), 13.39
M 12.00000 43 (1492.64, 1122.81, 0.00), (1501.17, 1123.89), 8.59
M 12.00000 44 (4273.93, 1364.00, 0.00), (4266.99, 1376.03), 13.89
M 12.00000 45 (1806.54, 896.54, 0.00), (1806.29, 894.36), 2.19
M 12.00000 46 (1104.31, 894.93, 0.00), (1095.04, 894.87), 9.26
M 12.00000 47 (1883.35, 1179.80, 0.00), (1868.86, 1172.18), 16.37
s 12.241894676 _78_ AGT  --- 11 cbr 512 [0 0 0 0] [energy 95.746493 ei 4.249 es 0.000 et 0.004 er 0.000] ------- [78:0 79:0 32 0] [11] 0 0
r 12.241894676 _78_ RTR  --- 11 cbr 512 [0 0 0 0] [energy 95.746493 ei 4.249 es 0.000 et 0.004 er 0.000] ------- [78:0 79:0 32 0] [11] 0 0
M 13.00000 40 (1823.23, 1689.01, 0.00), (1810.90, 1686.58), 12.57
M 13.00000 41 (1330.90, 1411.28, 0.00), (1331.99, 1402.34), 9.01
M 13.00000 42 (1754.63, 1444.54, 0.00), (1768.21, 1446.45), 13.70
M 13.00000 43 (1501.16, 1123.89, 0.00), (1505.22, 1124.40), 4.09
M 13.00000 44 (4266.99, 1376.03, 0.00), (4260.17, 1387.83), 13.63
M 13.00000 45 (1806.29, 894.36, 0.00), (1806.14, 893.13), 1.24
M 13.00000 46 (1095.05, 894.87, 0.00), (1090.07, 894.84), 4.97
M 13.00000 47 (1868.86, 1172.18, 0.00), (1857.56, 1166.23), 12.77
s 13.165551413 _78_ AGT  --- 12 cbr 512 [0 0 0 0] [energy 95.746493 ei 4.249 es 0.000 et 0.004 er 0.000] ------- [78:0 79:0 32 0] [12] 0 0
r 13.165551413 _78_ RTR  --- 12 cbr 512 [0 0 0 0] [energy 95.746493 ei 4.249 es 0.000 et 0.004 er 0.000] ------- [78:0 79:0 32 0] [12] 0 0
s 13.840356667 _78_ AGT  --- 13 cbr 512 [0 0 0 0] [energy 95.746493 ei 4.249 es 0.000 et 0.004 er 0.000] ------- [78:0 79:0 32 0] [13] 0 0
r 13.840356667 _78_ RTR  --- 13 cbr 512 [0 0 0 0] [energy 95.746493 ei 4.249 es 0.000 et 0.004 er 0.000] ------- [78:0 79:0 32 0] [13] 0 0
M 14.00000 40 (1810.90, 1686.58, 0.00), (1796.99, 1683.82), 14.18
M 14.00000 41 (1331.99, 1402.34, 0.00), (1332.54, 1397.86), 4.51
M 14.00000 48 (1031.97, 409.42, 0.00), (1031.97, 409.42), 13.03
M 14.00000 42 (1768.20, 1446.45, 0.00), (1781.38, 1448.31), 13.30
M 14.00000 43 (1505.22, 1124.40, 0.00), (1510.66, 1125.89), 5.68
M 14.00000 44 (4260.17, 1387.83, 0.00), (4253.54, 1399.28), 13.23
M 14.00000 45 (1806.14, 893.13, 0.00), (1805.90, 891.07), 2.08
M 14.00000 46 (1090.08, 894.84, 0.00), (1084.58, 896.52), 5.98
M 14.00000 47 (1857.56, 1166.23, 0.00), (1850.22, 1162.38), 8.30
s 14.000000000 _78_ RTR  --- 0 AODV 48 [0 0 0 0] [energy 95.746493 ei 4.249 es 0.000 et 0.004 er 0.000] ------- [78:255 -1:255 30 0] [0x2 1 4 [79 0] [78 10]] (REQUEST)
s 14.000395000 _78_ MAC  --- 0 AODV 106 [0 ffffffff 4e 800] [energy 95.746493 ei 4.249 es 0.000 et 0.004 er 0.000] ------- [78:255 -1:255 30 0] [0x2 1 4 [79 0] [78 10]] (REQUEST)
s 14.434495521 _78_ AGT  --- 14 cbr 512 [0 0 0 0] [energy 92.995478 ei 6.999 es 0.000 et 0.006 er 0.000] ------- [78:0 79:0 32 0] [14] 0 0
r 14.434495521 _78_ RTR  --- 14 cbr 512 [0 0 0 0] [energy 92.995478 ei 6.999 es 0.000 et 0.006 er 0.000] ------- [78:0 79:0 32 0] [14] 0 0
M 15.00000 40 (1796.99, 1683.82, 0.00), (1783.34, 1681.12), 13.91
M 15.00000 41 (1332.54, 1397.86, 0.00), (1333.46, 1391.06), 6.86
M 15.00000 48 (1031.97, 409.42, 0.00), (1033.21, 421.80), 12.44
M 15.00000 49 (3348.13, 1519.67, 0.00), (3348.13, 1519.67), 19.04
M 15.00000 42 (1781.37, 1448.31, 0.00), (1795.13, 1450.24), 13.89
M 15.00000 43 (1510.66, 1125.89, 0.00), (1515.41, 1131.96), 8.07
M 15.00000 44 (4253.54, 1399.28, 0.00), (4246.58, 1411.30), 13.89
M 15.00000 45 (1805.90, 891.07, 0.00), (1805.65, 888.84), 2.24
M 15.00000 46 (1084.58, 896.52, 0.00), (1083.42, 902.43), 6.16
M 15.00000 47 (1850.22, 1162.38, 0.00), (1845.11, 1159.89), 5.68
s 15.192583470 _78_ AGT  --- 15 cbr 512 [0 0 0 0] [energy 92.995478 ei 6.999 es 0.000 et 0.006 er 0.000] ------- [78:0 79:0 32 0] [15] 0 0
r 15.192583470 _78_ RTR  --- 15 cbr 512 [0 0 0 0] [energy 92.995478 ei 6.999 es 0.000 et 0.006 er 0.000] ------- [78:0 79:0 32 0] [15] 0 0
M 16.00000 40 (1783.35, 1681.12, 0.00), (1770.01, 1678.48), 13.59
M 16.00000 41 (1333.46, 1391.07, 0.00), (1334.76, 1381.78), 9.37
M 16.00000 48 (1033.21, 421.80, 0.00), (1034.44, 433.99), 12.25
M 16.00000 49 (3348.13, 1519.67, 0.00), (3353.74, 1502.25), 18.44
M 16.00000 50 (3084.45, 1853.14, 0.00), (3084.45, 1853.14), 24.23
M 16.00000 42 (1795.12, 1450.24, 0.00), (1808.59, 1452.13), 13.59
M 16.00000 43 (1515.41, 1131.96, 0.00), (1516.31, 1140.16), 8.26
M 16.00000 44 (4246.58, 1411.30, 0.00), (4239.45, 1423.54), 14.16
M 16.00000 45 (1805.65, 888.84, 0.00), (1805.47, 887.03), 1.82
M 16.00000 46 (1083.42, 902.43, 0.00), (1083.50, 910.14), 7.71
M 16.00000 47 (1845.11, 1159.89, 0.00), (1844.23, 1157.37), 3.10
s 16.101269146 _78_ AGT  --- 16 cbr 512 [0 0 0 0] [energy 92.995478 ei 6.999 es 0.000 et 0.006 er 0.000] ------- [78:0 79:0 32 0] [16] 0 0
r 16.101269146 _78_ RTR  --- 16 cbr 512 [0 0 0 0] [energy 92.995478 ei 6.999 es 0.000 et 0.006 er 0.000] ------- [78:0 79:0 32 0] [16] 0 0
M 17.00000 40 (1770.01, 1678.48, 0.00), (1756.38, 1675.79), 13.90
M 17.00000 41 (1334.76, 1381.79, 0.00), (1336.57, 1370.06), 11.86
M 17.00000 48 (1034.44, 433.99, 0.00), (1035.64, 445.89), 11.96
M 17.00000 49 (3353.74, 1502.25, 0.00), (3355.51, 1488.11), 14.25
M 17.00000 50 (3084.45, 1853.14, 0.00), (3107.86, 1853.72), 23.42
M 17.00000 51 (1397.12, 1568.78, 0.00), (1397.12, 1568.78), 14.26
M 17.00000 42 (1808.58, 1452.13, 0.00), (1821.29, 1453.92), 12.83
M 17.00000 43 (1516.31, 1140.16, 0.00), (1516.96, 1150.56), 10.43
M 17.00000 44 (4239.45, 1423.53, 0.00), (4232.49, 1435.29), 13.67
M 17.00000 45 (1805.47, 887.03, 0.00), (1805.27, 884.98), 2.05
M 17.00000 46 (1083.50, 910.14, 0.00), (1083.59, 919.49), 9.35
M 17.00000 47 (1844.23, 1157.37, 0.00), (1846.69, 1157.10), 2.66
s 17.119917941 _78_ AGT  --- 17 cbr 512 [0 0 0 0] [energy 92.995478 ei 6.999 es 0.000 et 0.006 er 0.000] ------- [78:0 79:0 32 0] [17] 0 0
r 17.119917941 _78_ RTR  --- 17 cbr 512 [0 0 0 0] [energy 92.995478 ei 6.999 es 0.000 et 0.006 er 0.000] ------- [78:0 79:0 32 0] [17] 0 0
M 18.00000 40 (1756.38, 1675.79, 0.00), (1742.57, 1673.05), 14.08
M 18.00000 41 (1336.57, 1370.07, 0.00), (1338.45, 1357.90), 12.30
M 18.00000 48 (1035.64, 445.89, 0.00), (1036.93, 458.68), 12.85
M 18.00000 49 (3355.51, 1488.11, 0.00), (3356.72, 1478.44), 9.75
M 18.00000 50 (3107.86, 1853.72, 0.00), (3131.58, 1854.31), 23.73
M 18.00000 51 (1397.12, 1568.78, 0.00), (1383.95, 1566.43), 13.38
M 18.00000 52 (3169.32, 921.62, 0.00), (3169.32, 921.62), 8.34
M 18.00000 42 (1821.28, 1453.92, 0.00), (1833.95, 1455.70), 12.78
M 18.00000 43 (1516.96, 1150.56, 0.00), (1516.90, 1163.30), 12.73
M 18.00000 44 (4232.49, 1435.29, 0.00), (4225.42, 1447.13), 13.79
M 18.00000 45 (1805.27, 884.99, 0.00), (1805.06, 882.80), 2.19
M 18.00000 46 (1083.59, 919.49, 0.00), (1083.70, 930.71), 11.22
M 18.00000 47 (1846.69, 1157.10, 0.00), (1850.86, 1159.10), 4.62
s 18.086033877 _78_ AGT  --- 18 cbr 512 [0 0 0 0] [energy 92.995478 ei 6.999 es 0.000 et 0.006 er 0.000] ------- [78:0 79:0 32 0] [18] 0 0
r 18.086033877 _78_ RTR  --- 18 cbr 512 [0 0 0 0] [energy 92.995478 ei 6.999 es 0.000 et 0.006 er 0.000] ------- [78:0 79:0 32 0] [18] 0 0
M 19.00000 40 (1742.57, 1673.05, 0.00), (1729.02, 1670.37), 13.81
M 19.00000 41 (1338.45, 1357.91, 0.00), (1340.43, 1345.07), 12.98
M 19.00000 48 (1036.93, 458.67, 0.00), (1038.12, 470.49), 11.87
M 19.00000 49 (3356.72, 1478.44, 0.00), (3356.39, 1473.31), 5.25
M 19.00000 50 (3131.58, 1854.31, 0.00), (3154.72, 1854.87), 23.15
M 19.00000 51 (1383.95, 1566.43, 0.00), (1370.51, 1564.04), 13.66
M 19.00000 52 (3169.32, 921.62, 0.00), (3176.38, 921.47), 7.06
M 19.00000 42 (1833.94, 1455.70, 0.00), (1847.57, 1457.62), 13.76
M 19.00000 43 (1516.90, 1163.29, 0.00), (1515.95, 1178.13), 14.87
M 19.00000 44 (4225.42, 1447.13, 0.00), (4218.41, 1458.86), 13.66
M 19.00000 45 (1805.06, 882.81, 0.00), (1804.87, 880.77), 2.04
M 19.00000 46 (1083.70, 930.71, 0.00), (1083.94, 943.45), 12.74
M 19.00000 47 (1850.86, 1159.10, 0.00), (1857.15, 1162.41), 7.11
s 19.278340710 _78_ AGT  --- 19 cbr 512 [0 0 0 0] [energy 92.995478 ei 6.999 es 0.000 et 0.006 er 0.000] ------- [78:0 79:0 32 0] [19] 0 0
r 19.278340710 _78_ RTR  --- 19 cbr 512 [0 0 0 0] [energy 92.995478 ei 6.999 es 0.000 et 0.006 er 0.000] ------- [78:0 79:0 32 0] [19] 0 0
M 20.00000 40 (1729.02, 1670.37, 0.00), (1715.32, 1667.66), 13.96
M 20.00000 41 (1340.43, 1345.08, 0.00), (1342.00, 1334.92), 10.28
M 20.00000 48 (1038.12, 470.48, 0.00), (1039.34, 482.62), 12.19
M 20.00000 49 (3356.39, 1473.31, 0.00), (3352.57, 1471.07), 4.70
M 20.00000 50 (3154.72, 1854.87, 0.00), (3177.91, 1849.60), 24.19
M 20.00000 51 (1370.51, 1564.04, 0.00), (1356.63, 1561.56), 14.10
M 20.00000 52 (3176.38, 921.47, 0.00), (3181.05, 921.37), 4.67
M 20.00000 42 (1847.57, 1457.62, 0.00), (1860.42, 1459.43), 12.98
M 20.00000 43 (1515.95, 1178.13, 0.00), (1514.96, 1191.92), 13.82
M 20.00000 44 (4218.41, 1458.86, 0.00), (4213.72, 1466.72), 9.16
M 20.00000 45 (1804.87, 880.78, 0.00), (1804.73, 879.33), 1.45
M 20.00000 46 (1083.94, 943.45, 0.00), (1084.38, 957.57), 14.13
M 20.00000 47 (1857.15, 1162.41, 0.00), (1864.67, 1166.36), 8.49
s 20.640407991 _78_ AGT  --- 20 cbr 512 [0 0 0 0] [energy 92.995478 ei 6.999 es 0.000 et 0.006 er 0.000] ------- [78:0 79:0 32 0] [20] 0 0
r 20.640407991 _78_ RTR  --- 20 cbr 512 [0 0 0 0] [energy 92.995478 ei 6.999 es 0.000 et 0.006 er 0.000] ------- [78:0 79:0 32 0] [20] 0 0
M 21.00000 40 (1715.33, 1667.66, 0.00), (1700.98, 1664.83), 14.61
M 21.00000 41 (1342.00, 1334.92, 0.00), (1342.95, 1328.80), 6.19
M 21.00000 48 (1039.34, 482.61, 0.00), (1040.53, 494.42), 11.86
M 21.00000 49 (3352.57, 1471.07, 0.00), (3347.83, 1470.81), 4.76
M 21.00000 50 (3177.91, 1849.60, 0.00), (3190.21, 1830.66), 22.94
M 21.00000 51 (1356.63, 1561.56, 0.00), (1342.99, 1559.13), 13.85
M 21.00000 52 (3181.05, 921.37, 0.00), (3182.78, 923.65), 3.57
M 21.00000 42 (1860.42, 1459.43, 0.00), (1873.12, 1461.22), 12.83
M 21.00000 43 (1514.96, 1191.91, 0.00), (1514.05, 1204.69), 12.80
M 21.00000 44 (4213.72, 1466.72, 0.00), (4211.33, 1470.72), 4.66
M 21.00000 45 (1804.73, 879.34, 0.00), (1804.51, 877.13), 2.21
M 21.00000 46 (1084.38, 957.57, 0.00), (1084.89, 971.43), 13.87
M 21.00000 47 (1864.66, 1166.36, 0.00), (1874.29, 1171.42), 10.87
D 21.500000000 _78_ RTR NRTE 0 cbr 532 [0 0 0 0] [energy 92.995478 ei 6.999 es 0.000 et 0.006 er 0.000] ------- [78:0 79:0 30 0] [0] 0 0
D 21.500000000 _78_ RTR NRTE 1 cbr 532 [0 0 0 0] [energy 92.995478 ei 6.999 es 0.000 et 0.006 er 0.000] ------- [78:0 79:0 30 0] [1] 0 0
D 21.500000000 _78_ RTR NRTE 2 cbr 532 [0 0 0 0] [energy 92.995478 ei 6.999 es 0.000 et 0.006 er 0.000] ------- [78:0 79:0 30 0] [2] 0 0
D 21.500000000 _78_ RTR NRTE 3 cbr 532 [0 0 0 0] [energy 92.995478 ei 6.999 es 0.000 et 0.006 er 0.000] ------- [78:0 79:0 30 0] [3] 0 0
D 21.500000000 _78_ RTR NRTE 4 cbr 532 [0 0 0 0] [energy 92.995478 ei 6.999 es 0.000 et 0.006 er 0.000] ------- [78:0 79:0 30 0] [4] 0 0
D 21.500000000 _78_ RTR NRTE 5 cbr 532 [0 0 0 0] [energy 92.995478 ei 6.999 es 0.000 et 0.006 er 0.000] ------- [78:0 79:0 30 0] [5] 0 0
D 21.500000000 _78_ RTR NRTE 6 cbr 532 [0 0 0 0] [energy 92.995478 ei 6.999 es 0.000 et 0.006 er 0.000] ------- [78:0 79:0 30 0] [6] 0 0
D 21.500000000 _78_ RTR NRTE 7 cbr 532 [0 0 0 0] [energy 92.995478 ei 6.999 es 0.000 et 0.006 er 0.000] ------- [78:0 79:0 30 0] [7] 0 0
D 21.500000000 _78_ RTR NRTE 8 cbr 532 [0 0 0 0] [energy 92.995478 ei 6.999 es 0.000 et 0.006 er 0.000] ------- [78:0 79:0 30 0] [8] 0 0
D 21.500000000 _78_ RTR NRTE 9 cbr 532 [0 0 0 0] [energy 92.995478 ei 6.999 es 0.000 et 0.006 er 0.000] ------- [78:0 79:0 30 0] [9] 0 0
D 21.500000000 _78_ RTR NRTE 10 cbr 532 [0 0 0 0] [energy 92.995478 ei 6.999 es 0.000 et 0.006 er 0.000] ------- [78:0 79:0 30 0] [10] 0 0
D 21.500000000 _78_ RTR NRTE 11 cbr 532 [0 0 0 0] [energy 92.995478 ei 6.999 es 0.000 et 0.006 er 0.000] ------- [78:0 79:0 30 0] [11] 0 0
D 21.500000000 _78_ RTR NRTE 12 cbr 532 [0 0 0 0] [energy 92.995478 ei 6.999 es 0.000 et 0.006 er 0.000] ------- [78:0 79:0 30 0] [12] 0 0
D 21.500000000 _78_ RTR NRTE 13 cbr 532 [0 0 0 0] [energy 92.995478 ei 6.999 es 0.000 et 0.006 er 0.000] ------- [78:0 79:0 30 0] [13] 0 0
D 21.500000000 _78_ RTR NRTE 14 cbr 532 [0 0 0 0] [energy 92.995478 ei 6.999 es 0.000 et 0.006 er 0.000] ------- [78:0 79:0 30 0] [14] 0 0
D 21.500000000 _78_ RTR NRTE 15 cbr 532 [0 0 0 0] [energy 92.995478 ei 6.999 es 0.000 et 0.006 er 0.000] ------- [78:0 79:0 30 0] [15] 0 0
D 21.500000000 _78_ RTR NRTE 16 cbr 532 [0 0 0 0] [energy 92.995478 ei 6.999 es 0.000 et 0.006 er 0.000] ------- [78:0 79:0 30 0] [16] 0 0
D 21.500000000 _78_ RTR NRTE 17 cbr 532 [0 0 0 0] [energy 92.995478 ei 6.999 es 0.000 et 0.006 er 0.000] ------- [78:0 79:0 30 0] [17] 0 0
D 21.500000000 _78_ RTR NRTE 18 cbr 532 [0 0 0 0] [energy 92.995478 ei 6.999 es 0.000 et 0.006 er 0.000] ------- [78:0 79:0 30 0] [18] 0 0
D 21.500000000 _78_ RTR NRTE 19 cbr 532 [0 0 0 0] [energy 92.995478 ei 6.999 es 0.000 et 0.006 er 0.000] ------- [78:0 79:0 30 0] [19] 0 0
D 21.500000000 _78_ RTR NRTE 20 cbr 532 [0 0 0 0] [energy 92.995478 ei 6.999 es 0.000 et 0.006 er 0.000] ------- [78:0 79:0 30 0] [20] 0 0
s 21.980233193 _78_ AGT  --- 21 cbr 512 [0 0 0 0] [energy 92.995478 ei 6.999 es 0.000 et 0.006 er 0.000] ------- [78:0 79:0 32 0] [21] 0 0
r 21.980233193 _78_ RTR  --- 21 cbr 512 [0 0 0 0] [energy 92.995478 ei 6.999 es 0.000 et 0.006 er 0.000] ------- [78:0 79:0 32 0] [21] 0 0
M 22.00000 40 (1700.99, 1664.83, 0.00), (1686.56, 1661.97), 14.71
M 22.00000 41 (1342.95, 1328.81, 0.00), (1344.18, 1320.46), 8.44
M 22.00000 48 (1040.53, 494.41, 0.00), (1041.77, 506.71), 12.35
M 22.00000 49 (3347.83, 1470.81, 0.00), (3341.77, 1470.61), 6.06
M 22.00000 50 (3190.21, 1830.66, 0.00), (3194.76, 1807.17), 24.10
M 22.00000 51 (1342.99, 1559.13, 0.00), (1329.66, 1556.76), 13.54
M 22.00000 52 (3182.78, 923.65, 0.00), (3179.35, 924.61), 3.74
M 22.00000 42 (1873.12, 1461.22, 0.00), (1886.87, 1463.15), 13.88
M 22.00000 43 (1514.05, 1204.68, 0.00), (1513.46, 1212.97), 8.30
M 22.00000 44 (4211.33, 1470.72, 0.00), (4206.36, 1475.36), 6.93
M 22.00000 45 (1804.51, 877.14, 0.00), (1804.32, 875.11), 2.03
M 22.00000 46 (1084.89, 971.43, 0.00), (1085.57, 985.79), 14.38
M 22.00000 47 (1874.28, 1171.42, 0.00), (1885.19, 1177.16), 12.31
s 22.697392653 _78_ AGT  --- 22 cbr 512 [0 0 0 0] [energy 92.995478 ei 6.999 es 0.000 et 0.006 er 0.000] ------- [78:0 79:0 32 0] [22] 0 0
r 22.697392653 _78_ RTR  --- 22 cbr 512 [0 0 0 0] [energy 92.995478 ei 6.999 es 0.000 et 0.006 er 0.000] ------- [78:0 79:0 32 0] [22] 0 0
M 23.00000 40 (1686.57, 1661.97, 0.00), (1672.12, 1659.12), 14.72
M 23.00000 41 (1344.18, 1320.46, 0.00), (1345.63, 1310.38), 10.19
M 23.00000 48 (1041.77, 506.70, 0.00), (1043.03, 519.22), 12.58
M 23.00000 49 (3341.77, 1470.61, 0.00), (3334.06, 1470.35), 7.72
M 23.00000 50 (3194.76, 1807.17, 0.00), (3196.85, 1783.76), 23.53
M 23.00000 51 (1329.66, 1556.76, 0.00), (1315.95, 1554.37), 13.92
M 23.00000 52 (3179.35, 924.61, 0.00), (3173.42, 924.73), 5.94
M 23.00000 42 (1886.87, 1463.15, 0.00), (1899.69, 1464.95), 12.95
M 23.00000 53 (1714.15, 933.59, 0.00), (1714.15, 933.59), 7.70
M 23.00000 43 (1513.46, 1212.96, 0.00), (1513.19, 1216.77), 3.80
M 23.00000 44 (4206.36, 1475.36, 0.00), (4198.95, 1474.24), 7.76
M 23.00000 45 (1804.32, 875.12, 0.00), (1804.12, 873.07), 2.05
M 23.00000 46 (1085.57, 985.79, 0.00), (1086.21, 999.01), 13.24
M 23.00000 47 (1885.18, 1177.15, 0.00), (1897.33, 1183.55), 13.72
s 23.438618281 _78_ AGT  --- 23 cbr 512 [0 0 0 0] [energy 92.995478 ei 6.999 es 0.000 et 0.006 er 0.000] ------- [78:0 79:0 32 0] [23] 0 0
r 23.438618281 _78_ RTR  --- 23 cbr 512 [0 0 0 0] [energy 92.995478 ei 6.999 es 0.000 et 0.006 er 0.000] ------- [78:0 79:0 32 0] [23] 0 0
M 24.00000 40 (1672.12, 1659.12, 0.00), (1658.18, 1656.36), 14.21
M 24.00000 41 (1345.63, 1310.38, 0.00), (1347.35, 1297.84), 12.66
M 24.00000 48 (1043.03, 519.21, 0.00), (1044.23, 531.12), 11.95
M 24.00000 49 (3334.06, 1470.35, 0.00), (3324.38, 1470.02), 9.69
M 24.00000 50 (3196.85, 1783.76, 0.00), (3203.29, 1761.38), 23.35
M 24.00000 51 (1315.95, 1554.37, 0.00), (1302.16, 1552.20), 13.96
M 24.00000 52 (3173.42, 924.73, 0.00), (3165.80, 924.89), 7.62
M 24.00000 42 (1899.69, 1464.95, 0.00), (1913.28, 1466.87), 13.73
M 24.00000 53 (1714.15, 933.59, 0.00), (1706.83, 933.69), 7.32
M 24.00000 54 (1530.25, 1786.94, 0.00), (1530.25, 1786.94), 13.77
M 24.00000 43 (1513.19, 1216.75, 0.00), (1509.54, 1220.37), 5.84
M 24.00000 44 (4198.95, 1474.24, 0.00), (4189.98, 1469.15), 10.31
M 24.00000 45 (1804.12, 873.08, 0.00), (1803.98, 871.58), 1.50
M 24.00000 46 (1086.21, 999.01, 0.00), (1086.04, 1007.19), 10.43
M 24.00000 47 (1897.32, 1183.54, 0.00), (1911.30, 1190.90), 15.79
s 24.789724833 _78_ AGT  --- 24 cbr 512 [0 0 0 0] [energy 92.995478 ei 6.999 es 0.000 et 0.006 er 0.000] ------- [78:0 79:0 32 0] [24] 0 0
r 24.789724833 _78_ RTR  --- 24 cbr 512 [0 0 0 0] [energy 92.995478 ei 6.999 es 0.000 et 0.006 er 0.000] ------- [78:0 79:0 32 0] [24] 0 0
M 25.00000 40 (1658.18, 1656.36, 0.00), (1644.58, 1653.67), 13.86
M 25.00000 41 (1347.35, 1297.84, 0.00), (1349.11, 1285.02), 12.94
M 25.00000 48 (1044.23, 531.10, 0.00), (1045.50, 542.95), 11.90
M 25.00000 49 (3324.38, 1470.02, 0.00), (3313.17, 1469.70), 11.21
M 25.00000 50 (3203.29, 1761.38, 0.00), (3214.37, 1740.42), 23.81
M 25.00000 51 (1302.16, 1552.20, 0.00), (1289.13, 1550.30), 13.16
M 25.00000 52 (3165.80, 924.89, 0.00), (3160.94, 924.99), 4.86
M 25.00000 42 (1913.28, 1466.87, 0.00), (1926.93, 1468.79), 13.78
M 25.00000 53 (1706.83, 933.69, 0.00), (1702.90, 933.51), 4.00
M 25.00000 54 (1530.25, 1786.94, 0.00), (1532.14, 1774.48), 12.60
M 25.00000 43 (1509.54, 1220.37, 0.00), (1504.30, 1220.01), 5.26
M 25.00000 44 (4189.98, 1469.15, 0.00), (4178.82, 1462.81), 12.84
M 25.00000 45 (1803.98, 871.58, 0.00), (1803.83, 870.04), 1.54
M 25.00000 46 (1086.04, 1007.19, 0.00), (1085.76, 1013.20), 6.01
M 25.00000 47 (1911.29, 1190.90, 0.00), (1926.72, 1198.82), 17.34
s 25.967073776 _78_ AGT  --- 25 cbr 512 [0 0 0 0] [energy 92.995478 ei 6.999 es 0.000 et 0.006 er 0.000] ------- [78:0 79:0 32 0] [25] 0 0
r 25.967073776 _78_ RTR  --- 25 cbr 512 [0 0 0 0] [energy 92.995478 ei 6.999 es 0.000 et 0.006 er 0.000] ------- [78:0 79:0 32 0] [25] 0 0
M 26.00000 40 (1644.59, 1653.67, 0.00), (1630.44, 1650.87), 14.42
M 26.00000 41 (1349.11, 1285.02, 0.00), (1350.76, 1272.97), 12.16
M 26.00000 48 (1045.50, 542.94, 0.00), (1046.88, 555.59), 12.72
M 26.00000 49 (3313.17, 1469.70, 0.00), (3301.41, 1469.78), 11.77
M 26.00000 50 (3214.37, 1740.42, 0.00), (3230.69, 1723.50), 23.64
M 26.00000 51 (1289.14, 1550.30, 0.00), (1275.38, 1548.30), 13.90
M 26.00000 52 (3160.94, 924.99, 0.00), (3154.46, 924.33), 6.57
M 26.00000 42 (1926.93, 1468.79, 0.00), (1940.82, 1470.74), 14.02
M 26.00000 53 (1702.90, 933.51, 0.00), (1702.12, 931.29), 2.94
M 26.00000 54 (1532.14, 1774.48, 0.00), (1534.22, 1760.87), 13.77
M 26.00000 55 (3620.23, 1205.34, 0.00), (3620.23, 1205.34), 12.87
M 26.00000 43 (1504.30, 1220.01, 0.00), (1497.19, 1219.17), 7.16
M 26.00000 44 (4178.82, 1462.81, 0.00), (4166.90, 1456.05), 13.70
M 26.00000 45 (1803.83, 870.05, 0.00), (1803.62, 867.91), 2.14
M 26.00000 46 (1085.76, 1013.19, 0.00), (1086.92, 1014.87), 5.19
M 26.00000 47 (1926.72, 1198.82, 0.00), (1939.78, 1205.24), 14.56
M 27.00000 40 (1630.44, 1650.87, 0.00), (1616.15, 1648.09), 14.55
M 27.00000 41 (1350.76, 1272.97, 0.00), (1352.52, 1260.19), 12.90
M 27.00000 48 (1046.88, 555.58, 0.00), (1048.23, 567.97), 12.46
M 27.00000 49 (3301.41, 1469.78, 0.00), (3290.56, 1469.86), 10.85
M 27.00000 50 (3230.69, 1723.50, 0.00), (3249.88, 1708.74), 24.21
M 27.00000 51 (1275.38, 1548.30, 0.00), (1261.60, 1546.30), 13.92
M 27.00000 52 (3154.46, 924.33, 0.00), (3150.27, 918.99), 7.17
M 27.00000 42 (1940.81, 1470.74, 0.00), (1951.65, 1472.27), 10.94
M 27.00000 53 (1702.12, 931.29, 0.00), (1705.46, 930.51), 3.58
M 27.00000 54 (1534.22, 1760.87, 0.00), (1536.10, 1747.67), 13.34
M 27.00000 55 (3620.23, 1205.34, 0.00), (3620.29, 1192.63), 12.70
M 27.00000 43 (1497.19, 1219.17, 0.00), (1488.00, 1218.08), 9.25
M 27.00000 44 (4166.90, 1456.05, 0.00), (4154.82, 1449.20), 13.89
M 27.00000 45 (1803.62, 867.92, 0.00), (1803.70, 866.16), 1.76
M 27.00000 46 (1086.92, 1014.87, 0.00), (1092.34, 1016.02), 5.64
M 27.00000 47 (1939.78, 1205.24, 0.00), (1948.80, 1209.67), 10.06
s 27.229305669 _78_ AGT  --- 26 cbr 512 [0 0 0 0] [energy 92.995478 ei 6.999 es 0.000 et 0.006 er 0.000] ------- [78:0 79:0 32 0] [26] 0 0
r 27.229305669 _78_ RTR  --- 26 cbr 512 [0 0 0 0] [energy 92.995478 ei 6.999 es 0.000 et 0.006 er 0.000] ------- [78:0 79:0 32 0] [26] 0 0
M 28.00000 40 (1616.16, 1648.09, 0.00), (1602.88, 1645.61), 13.49
M 28.00000 41 (1352.52, 1260.19, 0.00), (1354.30, 1248.03), 12.29
M 28.00000 48 (1048.23, 567.97, 0.00), (1049.62, 580.65), 12.75
M 28.00000 49 (3290.56, 1469.86, 0.00), (3279.10, 1470.51), 11.53
M 28.00000 50 (3249.88, 1708.74, 0.00), (3267.20, 1695.74), 21.67
M 28.00000 51 (1261.61, 1546.30, 0.00), (1248.18, 1544.35), 13.57
M 28.00000 52 (3150.27, 918.99, 0.00), (3149.96, 911.61), 7.40
M 28.00000 42 (1951.64, 1472.27, 0.00), (1958.13, 1473.18), 6.54
M 28.00000 53 (1705.46, 930.51, 0.00), (1710.76, 930.43), 5.30
M 28.00000 54 (1536.10, 1747.67, 0.00), (1537.93, 1734.20), 13.59
M 28.00000 55 (3620.29, 1192.64, 0.00), (3620.35, 1180.67), 11.96
M 28.00000 43 (1488.00, 1218.08, 0.00), (1477.24, 1216.80), 10.84
M 28.00000 44 (4154.82, 1449.20, 0.00), (4142.54, 1442.23), 14.12
M 28.00000 45 (1803.70, 866.16, 0.00), (1804.31, 864.46), 1.95
M 28.00000 46 (1092.34, 1016.02, 0.00), (1099.44, 1016.16), 7.10
M 28.00000 47 (1948.80, 1209.67, 0.00), (1953.74, 1212.19), 5.56
s 28.634251138 _78_ AGT  --- 27 cbr 512 [0 0 0 0] [energy 92.995478 ei 6.999 es 0.000 et 0.006 er 0.000] ------- [78:0 79:0 32 0] [27] 0 0
r 28.634251138 _78_ RTR  --- 27 cbr 512 [0 0 0 0] [energy 92.995478 ei 6.999 es 0.000 et 0.006 er 0.000] ------- [78:0 79:0 32 0] [27] 0 0
M 29.00000 40 (1602.90, 1645.61, 0.00), (1588.75, 1643.05), 14.37