M 0.0 nn 40 x 1200 y 1200 rp AODV
M 0.0 sc scenario.txt cp ../cbr.txt seed 1.0
M 0.0 prop Propagation/TwoRayGround ant Antenna/OmniAntenna
M 0.00000 0 (1.60, 976.14, 0.00), (1.60, 976.14), 17.08
M 1.00000 0 (1.60, 976.14, 0.00), (1.60, 988.72), 12.58
M 1.00000 1 (739.44, 598.40, 0.00), (739.44, 598.40), 18.77
M 2.00000 0 (1.60, 988.72, 0.00), (1.60, 996.80), 8.08
M 2.00000 1 (739.44, 598.40, 0.00), (757.93, 598.40), 18.49
M 2.00000 2 (815.82, 998.40, 0.00), (815.82, 998.40), 20.21
s 2.556838879 _38_ AGT  --- 0 cbr 512 [0 0 0 0] ------- [38:0 39:0 32 0] [0] 0 0
r 2.556838879 _38_ RTR  --- 0 cbr 512 [0 0 0 0] ------- [38:0 39:0 32 0] [0] 0 0
s 2.556838879 _38_ RTR  --- 0 AODV 48 [0 0 0 0] ------- [38:255 -1:255 30 0] [0x2 1 1 [39 0] [38 4]] (REQUEST)
s 2.556953879 _38_ MAC  --- 0 AODV 106 [0 ffffffff 26 800] ------- [38:255 -1:255 30 0] [0x2 1 1 [39 0] [38 4]] (REQUEST)
r 2.557801902 _0_ MAC  --- 0 AODV 48 [0 ffffffff 26 800] ------- [38:255 -1:255 30 0] [0x2 1 1 [39 0] [38 4]] (REQUEST)
r 2.557801909 _35_ MAC  --- 0 AODV 48 [0 ffffffff 26 800] ------- [38:255 -1:255 30 0] [0x2 1 1 [39 0] [38 4]] (REQUEST)
r 2.557802093 _18_ MAC  --- 0 AODV 48 [0 ffffffff 26 800] ------- [38:255 -1:255 30 0] [0x2 1 1 [39 0] [38 4]] (REQUEST)
r 2.557802541 _10_ MAC  --- 0 AODV 48 [0 ffffffff 26 800] ------- [38:255 -1:255 30 0] [0x2 1 1 [39 0] [38 4]] (REQUEST)
r 2.557826902 _0_ RTR  --- 0 AODV 48 [0 ffffffff 26 800] ------- [38:255 -1:255 30 0] [0x2 1 1 [39 0] [38 4]] (REQUEST)
r 2.557826909 _35_ RTR  --- 0 AODV 48 [0 ffffffff 26 800] ------- [38:255 -1:255 30 0] [0x2 1 1 [39 0] [38 4]] (REQUEST)
r 2.557827093 _18_ RTR  --- 0 AODV 48 [0 ffffffff 26 800] ------- [38:255 -1:255 30 0] [0x2 1 1 [39 0] [38 4]] (REQUEST)
r 2.557827541 _10_ RTR  --- 0 AODV 48 [0 ffffffff 26 800] ------- [38:255 -1:255 30 0] [0x2 1 1 [39 0] [38 4]] (REQUEST)
s 2.558708129 _0_ RTR  --- 0 AODV 48 [0 ffffffff 26 800] ------- [0:255 -1:255 29 0] [0x2 2 1 [39 0] [38 4]] (REQUEST)
s 2.558983129 _0_ MAC  --- 0 AODV 106 [0 ffffffff 0 800] ------- [0:255 -1:255 29 0] [0x2 2 1 [39 0] [38 4]] (REQUEST)
r 2.559831136 _35_ MAC  --- 0 AODV 48 [0 ffffffff 0 800] ------- [0:255 -1:255 29 0] [0x2 2 1 [39 0] [38 4]] (REQUEST)
r 2.559831152 _38_ MAC  --- 0 AODV 48 [0 ffffffff 0 800] ------- [0:255 -1:255 29 0] [0x2 2 1 [39 0] [38 4]] (REQUEST)
r 2.559831338 _18_ MAC  --- 0 AODV 48 [0 ffffffff 0 800] ------- [0:255 -1:255 29 0] [0x2 2 1 [39 0] [38 4]] (REQUEST)
r 2.559831785 _10_ MAC  --- 0 AODV 48 [0 ffffffff 0 800] ------- [0:255 -1:255 29 0] [0x2 2 1 [39 0] [38 4]] (REQUEST)
r 2.559856136 _35_ RTR  --- 0 AODV 48 [0 ffffffff 0 800] ------- [0:255 -1:255 29 0] [0x2 2 1 [39 0] [38 4]] (REQUEST)
r 2.559856152 _38_ RTR  --- 0 AODV 48 [0 ffffffff 0 800] ------- [0:255 -1:255 29 0] [0x2 2 1 [39 0] [38 4]] (REQUEST)
r 2.559856338 _18_ RTR  --- 0 AODV 48 [0 ffffffff 0 800] ------- [0:255 -1:255 29 0] [0x2 2 1 [39 0] [38 4]] (REQUEST)
r 2.559856785 _10_ RTR  --- 0 AODV 48 [0 ffffffff 0 800] ------- [0:255 -1:255 29 0] [0x2 2 1 [39 0] [38 4]] (REQUEST)
s 2.560957158 _10_ RTR  --- 0 AODV 48 [0 ffffffff 26 800] ------- [10:255 -1:255 29 0] [0x2 2 1 [39 0] [38 4]] (REQUEST)
s 2.561392158 _10_ MAC  --- 0 AODV 106 [0 ffffffff a 800] ------- [10:255 -1:255 29 0] [0x2 2 1 [39 0] [38 4]] (REQUEST)
s 2.562238642 _35_ RTR  --- 0 AODV 48 [0 ffffffff 26 800] ------- [35:255 -1:255 29 0] [0x2 2 1 [39 0] [38 4]] (REQUEST)
r 2.562240606 _18_ MAC  --- 0 AODV 48 [0 ffffffff a 800] ------- [10:255 -1:255 29 0] [0x2 2 1 [39 0] [38 4]] (REQUEST)
r 2.562240814 _35_ MAC  --- 0 AODV 48 [0 ffffffff a 800] ------- [10:255 -1:255 29 0] [0x2 2 1 [39 0] [38 4]] (REQUEST)
r 2.562240814 _0_ MAC  --- 0 AODV 48 [0 ffffffff a 800] ------- [10:255 -1:255 29 0] [0x2 2 1 [39 0] [38 4]] (REQUEST)
r 2.562240820 _38_ MAC  --- 0 AODV 48 [0 ffffffff a 800] ------- [10:255 -1:255 29 0] [0x2 2 1 [39 0] [38 4]] (REQUEST)
r 2.562240880 _13_ MAC  --- 0 AODV 48 [0 ffffffff a 800] ------- [10:255 -1:255 29 0] [0x2 2 1 [39 0] [38 4]] (REQUEST)
r 2.562241403 _16_ MAC  --- 0 AODV 48 [0 ffffffff a 800] ------- [10:255 -1:255 29 0] [0x2 2 1 [39 0] [38 4]] (REQUEST)
r 2.562265606 _18_ RTR  --- 0 AODV 48 [0 ffffffff a 800] ------- [10:255 -1:255 29 0] [0x2 2 1 [39 0] [38 4]] (REQUEST)
r 2.562265814 _35_ RTR  --- 0 AODV 48 [0 ffffffff a 800] ------- [10:255 -1:255 29 0] [0x2 2 1 [39 0] [38 4]] (REQUEST)
r 2.562265814 _0_ RTR  --- 0 AODV 48 [0 ffffffff a 800] ------- [10:255 -1:255 29 0] [0x2 2 1 [39 0] [38 4]] (REQUEST)
r 2.562265820 _38_ RTR  --- 0 AODV 48 [0 ffffffff a 800] ------- [10:255 -1:255 29 0] [0x2 2 1 [39 0] [38 4]] (REQUEST)
r 2.562265880 _13_ RTR  --- 0 AODV 48 [0 ffffffff a 800] ------- [10:255 -1:255 29 0] [0x2 2 1 [39 0] [38 4]] (REQUEST)
r 2.562266403 _16_ RTR  --- 0 AODV 48 [0 ffffffff a 800] ------- [10:255 -1:255 29 0] [0x2 2 1 [39 0] [38 4]] (REQUEST)
s 2.562553642 _35_ MAC  --- 0 AODV 106 [0 ffffffff 23 800] ------- [35:255 -1:255 29 0] [0x2 2 1 [39 0] [38 4]] (REQUEST)
s 2.562694348 _16_ RTR  --- 0 AODV 48 [0 ffffffff a 800] ------- [16:255 -1:255 28 0] [0x2 3 1 [39 0] [38 4]] (REQUEST)
s 2.562929348 _16_ MAC  --- 0 AODV 106 [0 ffffffff 10 800] ------- [16:255 -1:255 28 0] [0x2 3 1 [39 0] [38 4]] (REQUEST)
r 2.563401650 _0_ MAC  --- 0 AODV 48 [0 ffffffff 23 800] ------- [35:255 -1:255 29 0] [0x2 2 1 [39 0] [38 4]] (REQUEST)
r 2.563401672 _38_ MAC  --- 0 AODV 48 [0 ffffffff 23 800] ------- [35:255 -1:255 29 0] [0x2 2 1 [39 0] [38 4]] (REQUEST)
r 2.563401853 _18_ MAC  --- 0 AODV 48 [0 ffffffff 23 800] ------- [35:255 -1:255 29 0] [0x2 2 1 [39 0] [38 4]] (REQUEST)
r 2.563402298 _10_ MAC  --- 0 AODV 48 [0 ffffffff 23 800] ------- [35:255 -1:255 29 0] [0x2 2 1 [39 0] [38 4]] (REQUEST)
r 2.563426650 _0_ RTR  --- 0 AODV 48 [0 ffffffff 23 800] ------- [35:255 -1:255 29 0] [0x2 2 1 [39 0] [38 4]] (REQUEST)
r 2.563426672 _38_ RTR  --- 0 AODV 48 [0 ffffffff 23 800] ------- [35:255 -1:255 29 0] [0x2 2 1 [39 0] [38 4]] (REQUEST)
r 2.563426853 _18_ RTR  --- 0 AODV 48 [0 ffffffff 23 800] ------- [35:255 -1:255 29 0] [0x2 2 1 [39 0] [38 4]] (REQUEST)
r 2.563427298 _10_ RTR  --- 0 AODV 48 [0 ffffffff 23 800] ------- [35:255 -1:255 29 0] [0x2 2 1 [39 0] [38 4]] (REQUEST)
r 2.563778072 _19_ MAC  --- 0 AODV 48 [0 ffffffff 10 800] ------- [16:255 -1:255 28 0] [0x2 3 1 [39 0] [38 4]] (REQUEST)
r 2.563778094 _7_ MAC  --- 0 AODV 48 [0 ffffffff 10 800] ------- [16:255 -1:255 28 0] [0x2 3 1 [39 0] [38 4]] (REQUEST)
r 2.563778143 _12_ MAC  --- 0 AODV 48 [0 ffffffff 10 800] ------- [16:255 -1:255 28 0] [0x2 3 1 [39 0] [38 4]] (REQUEST)
r 2.563778452 _11_ MAC  --- 0 AODV 48 [0 ffffffff 10 800] ------- [16:255 -1:255 28 0] [0x2 3 1 [39 0] [38 4]] (REQUEST)
r 2.563778518 _13_ MAC  --- 0 AODV 48 [0 ffffffff 10 800] ------- [16:255 -1:255 28 0] [0x2 3 1 [39 0] [38 4]] (REQUEST)
r 2.563803072 _19_ RTR  --- 0 AODV 48 [0 ffffffff 10 800] ------- [16:255 -1:255 28 0] [0x2 3 1 [39 0] [38 4]] (REQUEST)
r 2.563803094 _7_ RTR  --- 0 AODV 48 [0 ffffffff 10 800] ------- [16:255 -1:255 28 0] [0x2 3 1 [39 0] [38 4]] (REQUEST)
r 2.563803143 _12_ RTR  --- 0 AODV 48 [0 ffffffff 10 800] ------- [16:255 -1:255 28 0] [0x2 3 1 [39 0] [38 4]] (REQUEST)
r 2.563803452 _11_ RTR  --- 0 AODV 48 [0 ffffffff 10 800] ------- [16:255 -1:255 28 0] [0x2 3 1 [39 0] [38 4]] (REQUEST)
r 2.563803518 _13_ RTR  --- 0 AODV 48 [0 ffffffff 10 800] ------- [16:255 -1:255 28 0] [0x2 3 1 [39 0] [38 4]] (REQUEST)
s 2.563907334 _13_ RTR  --- 0 AODV 48 [0 ffffffff a 800] ------- [13:255 -1:255 28 0] [0x2 3 1 [39 0] [38 4]] (REQUEST)
s 2.564182334 _13_ MAC  --- 0 AODV 106 [0 ffffffff d 800] ------- [13:255 -1:255 28 0] [0x2 3 1 [39 0] [38 4]] (REQUEST)
s 2.564744532 _12_ RTR  --- 0 AODV 48 [0 ffffffff 10 800] ------- [12:255 -1:255 27 0] [0x2 4 1 [39 0] [38 4]] (REQUEST)
r 2.565031014 _29_ MAC  --- 0 AODV 48 [0 ffffffff d 800] ------- [13:255 -1:255 28 0] [0x2 3 1 [39 0] [38 4]] (REQUEST)
r 2.565031055 _10_ MAC  --- 0 AODV 48 [0 ffffffff d 800] ------- [13:255 -1:255 28 0] [0x2 3 1 [39 0] [38 4]] (REQUEST)
r 2.565031461 _11_ MAC  --- 0 AODV 48 [0 ffffffff d 800] ------- [13:255 -1:255 28 0] [0x2 3 1 [39 0] [38 4]] (REQUEST)
r 2.565031487 _18_ MAC  --- 0 AODV 48 [0 ffffffff d 800] ------- [13:255 -1:255 28 0] [0x2 3 1 [39 0] [38 4]] (REQUEST)
r 2.565031500 _37_ MAC  --- 0 AODV 48 [0 ffffffff d 800] ------- [13:255 -1:255 28 0] [0x2 3 1 [39 0] [38 4]] (REQUEST)
r 2.565031504 _16_ MAC  --- 0 AODV 48 [0 ffffffff d 800] ------- [13:255 -1:255 28 0] [0x2 3 1 [39 0] [38 4]] (REQUEST)
r 2.565031583 _19_ MAC  --- 0 AODV 48 [0 ffffffff d 800] ------- [13:255 -1:255 28 0] [0x2 3 1 [39 0] [38 4]] (REQUEST)
s 2.565039532 _12_ MAC  --- 0 AODV 106 [0 ffffffff c 800] ------- [12:255 -1:255 27 0] [0x2 4 1 [39 0] [38 4]] (REQUEST)
r 2.565056014 _29_ RTR  --- 0 AODV 48 [0 ffffffff d 800] ------- [13:255 -1:255 28 0] [0x2 3 1 [39 0] [38 4]] (REQUEST)
r 2.565056055 _10_ RTR  --- 0 AODV 48 [0 ffffffff d 800] ------- [13:255 -1:255 28 0] [0x2 3 1 [39 0] [38 4]] (REQUEST)
r 2.565056461 _11_ RTR  --- 0 AODV 48 [0 ffffffff d 800] ------- [13:255 -1:255 28 0] [0x2 3 1 [39 0] [38 4]] (REQUEST)
r 2.565056487 _18_ RTR  --- 0 AODV 48 [0 ffffffff d 800] ------- [13:255 -1:255 28 0] [0x2 3 1 [39 0] [38 4]] (REQUEST)
r 2.565056500 _37_ RTR  --- 0 AODV 48 [0 ffffffff d 800] ------- [13:255 -1:255 28 0] [0x2 3 1 [39 0] [38 4]] (REQUEST)
r 2.565056504 _16_ RTR  --- 0 AODV 48 [0 ffffffff d 800] ------- [13:255 -1:255 28 0] [0x2 3 1 [39 0] [38 4]] (REQUEST)
r 2.565056583 _19_ RTR  --- 0 AODV 48 [0 ffffffff d 800] ------- [13:255 -1:255 28 0] [0x2 3 1 [39 0] [38 4]] (REQUEST)
s 2.565551146 _7_ RTR  --- 0 AODV 48 [0 ffffffff 10 800] ------- [7:255 -1:255 27 0] [0x2 4 1 [39 0] [38 4]] (REQUEST)
s 2.565818647 _18_ RTR  --- 0 AODV 48 [0 ffffffff 26 800] ------- [18:255 -1:255 29 0] [0x2 2 1 [39 0] [38 4]] (REQUEST)
r 2.565888021 _7_ MAC  --- 0 AODV 48 [0 ffffffff c 800] ------- [12:255 -1:255 27 0] [0x2 4 1 [39 0] [38 4]] (REQUEST)
r 2.565888110 _19_ MAC  --- 0 AODV 48 [0 ffffffff c 800] ------- [12:255 -1:255 27 0] [0x2 4 1 [39 0] [38 4]] (REQUEST)
r 2.565888326 _20_ MAC  --- 0 AODV 48 [0 ffffffff c 800] ------- [12:255 -1:255 27 0] [0x2 4 1 [39 0] [38 4]] (REQUEST)
r 2.565888327 _16_ MAC  --- 0 AODV 48 [0 ffffffff c 800] ------- [12:255 -1:255 27 0] [0x2 4 1 [39 0] [38 4]] (REQUEST)
r 2.565888459 _26_ MAC  --- 0 AODV 48 [0 ffffffff c 800] ------- [12:255 -1:255 27 0] [0x2 4 1 [39 0] [38 4]] (REQUEST)
r 2.565888462 _28_ MAC  --- 0 AODV 48 [0 ffffffff c 800] ------- [12:255 -1:255 27 0] [0x2 4 1 [39 0] [38 4]] (REQUEST)
r 2.565888530 _4_ MAC  --- 0 AODV 48 [0 ffffffff c 800] ------- [12:255 -1:255 27 0] [0x2 4 1 [39 0] [38 4]] (REQUEST)
r 2.565888566 _25_ MAC  --- 0 AODV 48 [0 ffffffff c 800] ------- [12:255 -1:255 27 0] [0x2 4 1 [39 0] [38 4]] (REQUEST)
r 2.565888569 _11_ MAC  --- 0 AODV 48 [0 ffffffff c 800] ------- [12:255 -1:255 27 0] [0x2 4 1 [39 0] [38 4]] (REQUEST)
r 2.565888614 _24_ MAC  --- 0 AODV 48 [0 ffffffff c 800] ------- [12:255 -1:255 27 0] [0x2 4 1 [39 0] [38 4]] (REQUEST)
r 2.565888814 _32_ MAC  --- 0 AODV 48 [0 ffffffff c 800] ------- [12:255 -1:255 27 0] [0x2 4 1 [39 0] [38 4]] (REQUEST)
r 2.565888845 _14_ MAC  --- 0 AODV 48 [0 ffffffff c 800] ------- [12:255 -1:255 27 0] [0x2 4 1 [39 0] [38 4]] (REQUEST)
r 2.565888865 _15_ MAC  --- 0 AODV 48 [0 ffffffff c 800] ------- [12:255 -1:255 27 0] [0x2 4 1 [39 0] [38 4]] (REQUEST)
r 2.565913021 _7_ RTR  --- 0 AODV 48 [0 ffffffff c 800] ------- [12:255 -1:255 27 0] [0x2 4 1 [39 0] [38 4]] (REQUEST)
r 2.565913110 _19_ RTR  --- 0 AODV 48 [0 ffffffff c 800] ------- [12:255 -1:255 27 0] [0x2 4 1 [39 0] [38 4]] (REQUEST)
r 2.565913326 _20_ RTR  --- 0 AODV 48 [0 ffffffff c 800] ------- [12:255 -1:255 27 0] [0x2 4 1 [39 0] [38 4]] (REQUEST)
r 2.565913327 _16_ RTR  --- 0 AODV 48 [0 ffffffff c 800] ------- [12:255 -1:255 27 0] [0x2 4 1 [39 0] [38 4]] (REQUEST)
r 2.565913459 _26_ RTR  --- 0 AODV 48 [0 ffffffff c 800] ------- [12:255 -1:255 27 0] [0x2 4 1 [39 0] [38 4]] (REQUEST)
r 2.565913462 _28_ RTR  --- 0 AODV 48 [0 ffffffff c 800] ------- [12:255 -1:255 27 0] [0x2 4 1 [39 0] [38 4]] (REQUEST)
r 2.565913530 _4_ RTR  --- 0 AODV 48 [0 ffffffff c 800] ------- [12:255 -1:255 27 0] [0x2 4 1 [39 0] [38 4]] (REQUEST)
r 2.565913566 _25_ RTR  --- 0 AODV 48 [0 ffffffff c 800] ------- [12:255 -1:255 27 0] [0x2 4 1 [39 0] [38 4]] (REQUEST)
r 2.565913569 _11_ RTR  --- 0 AODV 48 [0 ffffffff c 800] ------- [12:255 -1:255 27 0] [0x2 4 1 [39 0] [38 4]] (REQUEST)
r 2.565913614 _24_ RTR  --- 0 AODV 48 [0 ffffffff c 800] ------- [12:255 -1:255 27 0] [0x2 4 1 [39 0] [38 4]] (REQUEST)
r 2.565913814 _32_ RTR  --- 0 AODV 48 [0 ffffffff c 800] ------- [12:255 -1:255 27 0] [0x2 4 1 [39 0] [38 4]] (REQUEST)
r 2.565913845 _14_ RTR  --- 0 AODV 48 [0 ffffffff c 800] ------- [12:255 -1:255 27 0] [0x2 4 1 [39 0] [38 4]] (REQUEST)
r 2.565913865 _15_ RTR  --- 0 AODV 48 [0 ffffffff c 800] ------- [12:255 -1:255 27 0] [0x2 4 1 [39 0] [38 4]] (REQUEST)
s 2.566118021 _7_ MAC  --- 0 AODV 106 [0 ffffffff 7 800] ------- [7:255 -1:255 27 0] [0x2 4 1 [39 0] [38 4]] (REQUEST)
s 2.566473647 _18_ MAC  --- 0 AODV 106 [0 ffffffff 12 800] ------- [18:255 -1:255 29 0] [0x2 2 1 [39 0] [38 4]] (REQUEST)
r 2.566966511 _12_ MAC  --- 0 AODV 48 [0 ffffffff 7 800] ------- [7:255 -1:255 27 0] [0x2 4 1 [39 0] [38 4]] (REQUEST)
r 2.566966767 _16_ MAC  --- 0 AODV 48 [0 ffffffff 7 800] ------- [7:255 -1:255 27 0] [0x2 4 1 [39 0] [38 4]] (REQUEST)
r 2.566966979 _19_ MAC  --- 0 AODV 48 [0 ffffffff 7 800] ------- [7:255 -1:255 27 0] [0x2 4 1 [39 0] [38 4]] (REQUEST)
r 2.566966995 _32_ MAC  --- 0 AODV 48 [0 ffffffff 7 800] ------- [7:255 -1:255 27 0] [0x2 4 1 [39 0] [38 4]] (REQUEST)
r 2.566967130 _20_ MAC  --- 0 AODV 48 [0 ffffffff 7 800] ------- [7:255 -1:255 27 0] [0x2 4 1 [39 0] [38 4]] (REQUEST)
r 2.566967254 _22_ MAC  --- 0 AODV 48 [0 ffffffff 7 800] ------- [7:255 -1:255 27 0] [0x2 4 1 [39 0] [38 4]] (REQUEST)
r 2.566967350 _28_ MAC  --- 0 AODV 48 [0 ffffffff 7 800] ------- [7:255 -1:255 27 0] [0x2 4 1 [39 0] [38 4]] (REQUEST)
r 2.566991511 _12_ RTR  --- 0 AODV 48 [0 ffffffff 7 800] ------- [7:255 -1:255 27 0] [0x2 4 1 [39 0] [38 4]] (REQUEST)
r 2.566991767 _16_ RTR  --- 0 AODV 48 [0 ffffffff 7 800] ------- [7:255 -1:255 27 0] [0x2 4 1 [39 0] [38 4]] (REQUEST)
r 2.566991979 _19_ RTR  --- 0 AODV 48 [0 ffffffff 7 800] ------- [7:255 -1:255 27 0] [0x2 4 1 [39 0] [38 4]] (REQUEST)
r 2.566991995 _32_ RTR  --- 0 AODV 48 [0 ffffffff 7 800] ------- [7:255 -1:255 27 0] [0x2 4 1 [39 0] [38 4]] (REQUEST)
r 2.566992130 _20_ RTR  --- 0 AODV 48 [0 ffffffff 7 800] ------- [7:255 -1:255 27 0] [0x2 4 1 [39 0] [38 4]] (REQUEST)
r 2.566992254 _22_ RTR  --- 0 AODV 48 [0 ffffffff 7 800] ------- [7:255 -1:255 27 0] [0x2 4 1 [39 0] [38 4]] (REQUEST)
r 2.566992350 _28_ RTR  --- 0 AODV 48 [0 ffffffff 7 800] ------- [7:255 -1:255 27 0] [0x2 4 1 [39 0] [38 4]] (REQUEST)
s 2.567005830 _14_ RTR  --- 0 AODV 48 [0 ffffffff c 800] ------- [14:255 -1:255 26 0] [0x2 5 1 [39 0] [38 4]] (REQUEST)
s 2.567300830 _14_ MAC  --- 0 AODV 106 [0 ffffffff e 800] ------- [14:255 -1:255 26 0] [0x2 5 1 [39 0] [38 4]] (REQUEST)
r 2.567321857 _0_ MAC  --- 0 AODV 48 [0 ffffffff 12 800] ------- [18:255 -1:255 29 0] [0x2 2 1 [39 0] [38 4]] (REQUEST)
r 2.567321858 _35_ MAC  --- 0 AODV 48 [0 ffffffff 12 800] ------- [18:255 -1:255 29 0] [0x2 2 1 [39 0] [38 4]] (REQUEST)
r 2.567321862 _38_ MAC  --- 0 AODV 48 [0 ffffffff 12 800] ------- [18:255 -1:255 29 0] [0x2 2 1 [39 0] [38 4]] (REQUEST)
r 2.567322095 _10_ MAC  --- 0 AODV 48 [0 ffffffff 12 800] ------- [18:255 -1:255 29 0] [0x2 2 1 [39 0] [38 4]] (REQUEST)
r 2.567322801 _13_ MAC  --- 0 AODV 48 [0 ffffffff 12 800] ------- [18:255 -1:255 29 0] [0x2 2 1 [39 0] [38 4]] (REQUEST)
r 2.567346857 _0_ RTR  --- 0 AODV 48 [0 ffffffff 12 800] ------- [18:255 -1:255 29 0] [0x2 2 1 [39 0] [38 4]] (REQUEST)
r 2.567346858 _35_ RTR  --- 0 AODV 48 [0 ffffffff 12 800] ------- [18:255 -1:255 29 0] [0x2 2 1 [39 0] [38 4]] (REQUEST)
r 2.567346862 _38_ RTR  --- 0 AODV 48 [0 ffffffff 12 800] ------- [18:255 -1:255 29 0] [0x2 2 1 [39 0] [38 4]] (REQUEST)
r 2.567347095 _10_ RTR  --- 0 AODV 48 [0 ffffffff 12 800] ------- [18:255 -1:255 29 0] [0x2 2 1 [39 0] [38 4]] (REQUEST)
r 2.567347801 _13_ RTR  --- 0 AODV 48 [0 ffffffff 12 800] ------- [18:255 -1:255 29 0] [0x2 2 1 [39 0] [38 4]] (REQUEST)
s 2.568039639 _19_ RTR  --- 0 AODV 48 [0 ffffffff 10 800] ------- [19:255 -1:255 27 0] [0x2 4 1 [39 0] [38 4]] (REQUEST)
s 2.568084921 _20_ RTR  --- 0 AODV 48 [0 ffffffff c 800] ------- [20:255 -1:255 26 0] [0x2 5 1 [39 0] [38 4]] (REQUEST)
r 2.568148935 _27_ MAC  --- 0 AODV 48 [0 ffffffff e 800] ------- [14:255 -1:255 26 0] [0x2 5 1 [39 0] [38 4]] (REQUEST)
r 2.568149060 _24_ MAC  --- 0 AODV 48 [0 ffffffff e 800] ------- [14:255 -1:255 26 0] [0x2 5 1 [39 0] [38 4]] (REQUEST)
r 2.568149148 _25_ MAC  --- 0 AODV 48 [0 ffffffff e 800] ------- [14:255 -1:255 26 0] [0x2 5 1 [39 0] [38 4]] (REQUEST)
r 2.568149216 _26_ MAC  --- 0 AODV 48 [0 ffffffff e 800] ------- [14:255 -1:255 26 0] [0x2 5 1 [39 0] [38 4]] (REQUEST)
r 2.568149256 _36_ MAC  --- 0 AODV 48 [0 ffffffff e 800] ------- [14:255 -1:255 26 0] [0x2 5 1 [39 0] [38 4]] (REQUEST)
r 2.568149390 _23_ MAC  --- 0 AODV 48 [0 ffffffff e 800] ------- [14:255 -1:255 26 0] [0x2 5 1 [39 0] [38 4]] (REQUEST)
r 2.568149518 _1_ MAC  --- 0 AODV 48 [0 ffffffff e 800] ------- [14:255 -1:255 26 0] [0x2 5 1 [39 0] [38 4]] (REQUEST)
r 2.568149529 _21_ MAC  --- 0 AODV 48 [0 ffffffff e 800] ------- [14:255 -1:255 26 0] [0x2 5 1 [39 0] [38 4]] (REQUEST)
r 2.568149534 _9_ MAC  --- 0 AODV 48 [0 ffffffff e 800] ------- [14:255 -1:255 26 0] [0x2 5 1 [39 0] [38 4]] (REQUEST)
r 2.568149635 _30_ MAC  --- 0 AODV 48 [0 ffffffff e 800] ------- [14:255 -1:255 26 0] [0x2 5 1 [39 0] [38 4]] (REQUEST)
r 2.568149642 _5_ MAC  --- 0 AODV 48 [0 ffffffff e 800] ------- [14:255 -1:255 26 0] [0x2 5 1 [39 0] [38 4]] (REQUEST)
r 2.568149666 _11_ MAC  --- 0 AODV 48 [0 ffffffff e 800] ------- [14:255 -1:255 26 0] [0x2 5 1 [39 0] [38 4]] (REQUEST)
r 2.568149699 _6_ MAC  --- 0 AODV 48 [0 ffffffff e 800] ------- [14:255 -1:255 26 0] [0x2 5 1 [39 0] [38 4]] (REQUEST)
r 2.568149715 _4_ MAC  --- 0 AODV 48 [0 ffffffff e 800] ------- [14:255 -1:255 26 0] [0x2 5 1 [39 0] [38 4]] (REQUEST)
r 2.568149763 _28_ MAC  --- 0 AODV 48 [0 ffffffff e 800] ------- [14:255 -1:255 26 0] [0x2 5 1 [39 0] [38 4]] (REQUEST)
r 2.568149782 _8_ MAC  --- 0 AODV 48 [0 ffffffff e 800] ------- [14:255 -1:255 26 0] [0x2 5 1 [39 0] [38 4]] (REQUEST)
r 2.568149881 _19_ MAC  --- 0 AODV 48 [0 ffffffff e 800] ------- [14:255 -1:255 26 0] [0x2 5 1 [39 0] [38 4]] (REQUEST)
r 2.568150036 _20_ MAC  --- 0 AODV 48 [0 ffffffff e 800] ------- [14:255 -1:255 26 0] [0x2 5 1 [39 0] [38 4]] (REQUEST)
r 2.568150143 _12_ MAC  --- 0 AODV 48 [0 ffffffff e 800] ------- [14:255 -1:255 26 0] [0x2 5 1 [39 0] [38 4]] (REQUEST)
r 2.568173935 _27_ RTR  --- 0 AODV 48 [0 ffffffff e 800] ------- [14:255 -1:255 26 0] [0x2 5 1 [39 0] [38 4]] (REQUEST)
r 2.568174060 _24_ RTR  --- 0 AODV 48 [0 ffffffff e 800] ------- [14:255 -1:255 26 0] [0x2 5 1 [39 0] [38 4]] (REQUEST)
r 2.568174148 _25_ RTR  --- 0 AODV 48 [0 ffffffff e 800] ------- [14:255 -1:255 26 0] [0x2 5 1 [39 0] [38 4]] (REQUEST)
r 2.568174216 _26_ RTR  --- 0 AODV 48 [0 ffffffff e 800] ------- [14:255 -1:255 26 0] [0x2 5 1 [39 0] [38 4]] (REQUEST)
r 2.568174256 _36_ RTR  --- 0 AODV 48 [0 ffffffff e 800] ------- [14:255 -1:255 26 0] [0x2 5 1 [39 0] [38 4]] (REQUEST)
r 2.568174390 _23_ RTR  --- 0 AODV 48 [0 ffffffff e 800] ------- [14:255 -1:255 26 0] [0x2 5 1 [39 0] [38 4]] (REQUEST)
r 2.568174518 _1_ RTR  --- 0 AODV 48 [0 ffffffff e 800] ------- [14:255 -1:255 26 0] [0x2 5 1 [39 0] [38 4]] (REQUEST)
r 2.568174529 _21_ RTR  --- 0 AODV 48 [0 ffffffff e 800] ------- [14:255 -1:255 26 0] [0x2 5 1 [39 0] [38 4]] (REQUEST)
r 2.568174534 _9_ RTR  --- 0 AODV 48 [0 ffffffff e 800] ------- [14:255 -1:255 26 0] [0x2 5 1 [39 0] [38 4]] (REQUEST)
r 2.568174635 _30_ RTR  --- 0 AODV 48 [0 ffffffff e 800] ------- [14:255 -1:255 26 0] [0x2 5 1 [39 0] [38 4]] (REQUEST)
r 2.568174642 _5_ RTR  --- 0 AODV 48 [0 ffffffff e 800] ------- [14:255 -1:255 26 0] [0x2 5 1 [39 0] [38 4]] (REQUEST)
r 2.568174666 _11_ RTR  --- 0 AODV 48 [0 ffffffff e 800] ------- [14:255 -1:255 26 0] [0x2 5 1 [39 0] [38 4]] (REQUEST)
r 2.568174699 _6_ RTR  --- 0 AODV 48 [0 ffffffff e 800] ------- [14:255 -1:255 26 0] [0x2 5 1 [39 0] [38 4]] (REQUEST)
r 2.568174715 _4_ RTR  --- 0 AODV 48 [0 ffffffff e 800] ------- [14:255 -1:255 26 0] [0x2 5 1 [39 0] [38 4]] (REQUEST)
r 2.568174763 _28_ RTR  --- 0 AODV 48 [0 ffffffff e 800] ------- [14:255 -1:255 26 0] [0x2 5 1 [39 0] [38 4]] (REQUEST)
r 2.568174782 _8_ RTR  --- 0 AODV 48 [0 ffffffff e 800] ------- [14:255 -1:255 26 0] [0x2 5 1 [39 0] [38 4]] (REQUEST)
r 2.568174881 _19_ RTR  --- 0 AODV 48 [0 ffffffff e 800] ------- [14:255 -1:255 26 0] [0x2 5 1 [39 0] [38 4]] (REQUEST)
r 2.568175036 _20_ RTR  --- 0 AODV 48 [0 ffffffff e 800] ------- [14:255 -1:255 26 0] [0x2 5 1 [39 0] [38 4]] (REQUEST)
r 2.568175143 _12_ RTR  --- 0 AODV 48 [0 ffffffff e 800] ------- [14:255 -1:255 26 0] [0x2 5 1 [39 0] [38 4]] (REQUEST)
s 2.568260036 _20_ MAC  --- 0 AODV 106 [0 ffffffff 14 800] ------- [20:255 -1:255 26 0] [0x2 5 1 [39 0] [38 4]] (REQUEST)
s 2.568325715 _26_ RTR  --- 0 AODV 48 [0 ffffffff c 800] ------- [26:255 -1:255 26 0] [0x2 5 1 [39 0] [38 4]] (REQUEST)
r 2.569108353 _28_ MAC  --- 0 AODV 48 [0 ffffffff 14 800] ------- [20:255 -1:255 26 0] [0x2 5 1 [39 0] [38 4]] (REQUEST)
r 2.569108433 _4_ MAC  --- 0 AODV 48 [0 ffffffff 14 800] ------- [20:255 -1:255 26 0] [0x2 5 1 [39 0] [38 4]] (REQUEST)
r 2.569108672 _15_ MAC  --- 0 AODV 48 [0 ffffffff 14 800] ------- [20:255 -1:255 26 0] [0x2 5 1 [39 0] [38 4]] (REQUEST)
r 2.569108831 _12_ MAC  --- 0 AODV 48 [0 ffffffff 14 800] ------- [20:255 -1:255 26 0] [0x2 5 1 [39 0] [38 4]] (REQUEST)
r 2.569108856 _33_ MAC  --- 0 AODV 48 [0 ffffffff 14 800] ------- [20:255 -1:255 26 0] [0x2 5 1 [39 0] [38 4]] (REQUEST)
r 2.569108932 _25_ MAC  --- 0 AODV 48 [0 ffffffff 14 800] ------- [20:255 -1:255 26 0] [0x2 5 1 [39 0] [38 4]] (REQUEST)
r 2.569108955 _26_ MAC  --- 0 AODV 48 [0 ffffffff 14 800] ------- [20:255 -1:255 26 0] [0x2 5 1 [39 0] [38 4]] (REQUEST)
r 2.569109067 _24_ MAC  --- 0 AODV 48 [0 ffffffff 14 800] ------- [20:255 -1:255 26 0] [0x2 5 1 [39 0] [38 4]] (REQUEST)
r 2.569109108 _31_ MAC  --- 0 AODV 48 [0 ffffffff 14 800] ------- [20:255 -1:255 26 0] [0x2 5 1 [39 0] [38 4]] (REQUEST)
r 2.569109144 _7_ MAC  --- 0 AODV 48 [0 ffffffff 14 800] ------- [20:255 -1:255 26 0] [0x2 5 1 [39 0] [38 4]] (REQUEST)
r 2.569109194 _9_ MAC  --- 0 AODV 48 [0 ffffffff 14 800] ------- [20:255 -1:255 26 0] [0x2 5 1 [39 0] [38 4]] (REQUEST)
r 2.569109202 _19_ MAC  --- 0 AODV 48 [0 ffffffff 14 800] ------- [20:255 -1:255 26 0] [0x2 5 1 [39 0] [38 4]] (REQUEST)
r 2.569109203 _3_ MAC  --- 0 AODV 48 [0 ffffffff 14 800] ------- [20:255 -1:255 26 0] [0x2 5 1 [39 0] [38 4]] (REQUEST)
r 2.569109242 _14_ MAC  --- 0 AODV 48 [0 ffffffff 14 800] ------- [20:255 -1:255 26 0] [0x2 5 1 [39 0] [38 4]] (REQUEST)
r 2.569109328 _27_ MAC  --- 0 AODV 48 [0 ffffffff 14 800] ------- [20:255 -1:255 26 0] [0x2 5 1 [39 0] [38 4]] (REQUEST)
r 2.569109364 _32_ MAC  --- 0 AODV 48 [0 ffffffff 14 800] ------- [20:255 -1:255 26 0] [0x2 5 1 [39 0] [38 4]] (REQUEST)
r 2.569109369 _5_ MAC  --- 0 AODV 48 [0 ffffffff 14 800] ------- [20:255 -1:255 26 0] [0x2 5 1 [39 0] [38 4]] (REQUEST)
r 2.569109369 _30_ MAC  --- 0 AODV 48 [0 ffffffff 14 800] ------- [20:255 -1:255 26 0] [0x2 5 1 [39 0] [38 4]] (REQUEST)
r 2.569133353 _28_ RTR  --- 0 AODV 48 [0 ffffffff 14 800] ------- [20:255 -1:255 26 0] [0x2 5 1 [39 0] [38 4]] (REQUEST)
r 2.569133433 _4_ RTR  --- 0 AODV 48 [0 ffffffff 14 800] ------- [20:255 -1:255 26 0] [0x2 5 1 [39 0] [38 4]] (REQUEST)
r 2.569133672 _15_ RTR  --- 0 AODV 48 [0 ffffffff 14 800] ------- [20:255 -1:255 26 0] [0x2 5 1 [39 0] [38 4]] (REQUEST)
r 2.569133831 _12_ RTR  --- 0 AODV 48 [0 ffffffff 14 800] ------- [20:255 -1:255 26 0] [0x2 5 1 [39 0] [38 4]] (REQUEST)
r 2.569133856 _33_ RTR  --- 0 AODV 48 [0 ffffffff 14 800] ------- [20:255 -1:255 26 0] [0x2 5 1 [39 0] [38 4]] (REQUEST)
r 2.569133932 _25_ RTR  --- 0 AODV 48 [0 ffffffff 14 800] ------- [20:255 -1:255 26 0] [0x2 5 1 [39 0] [38 4]] (REQUEST)
r 2.569133955 _26_ RTR  --- 0 AODV 48 [0 ffffffff 14 800] ------- [20:255 -1:255 26 0] [0x2 5 1 [39 0] [38 4]] (REQUEST)
r 2.569134067 _24_ RTR  --- 0 AODV 48 [0 ffffffff 14 800] ------- [20:255 -1:255 26 0] [0x2 5 1 [39 0] [38 4]] (REQUEST)
r 2.569134108 _31_ RTR  --- 0 AODV 48 [0 ffffffff 14 800] ------- [20:255 -1:255 26 0] [0x2 5 1 [39 0] [38 4]] (REQUEST)
r 2.569134144 _7_ RTR  --- 0 AODV 48 [0 ffffffff 14 800] ------- [20:255 -1:255 26 0] [0x2 5 1 [39 0] [38 4]] (REQUEST)
r 2.569134194 _9_ RTR  --- 0 AODV 48 [0 ffffffff 14 800] ------- [20:255 -1:255 26 0] [0x2 5 1 [39 0] [38 4]] (REQUEST)
r 2.569134202 _19_ RTR  --- 0 AODV 48 [0 ffffffff 14 800] ------- [20:255 -1:255 26 0] [0x2 5 1 [39 0] [38 4]] (REQUEST)
r 2.569134203 _3_ RTR  --- 0 AODV 48 [0 ffffffff 14 800] ------- [20:255 -1:255 26 0] [0x2 5 1 [39 0] [38 4]] (REQUEST)
r 2.569134242 _14_ RTR  --- 0 AODV 48 [0 ffffffff 14 800] ------- [20:255 -1:255 26 0] [0x2 5 1 [39 0] [38 4]] (REQUEST)
r 2.569134328 _27_ RTR  --- 0 AODV 48 [0 ffffffff 14 800] ------- [20:255 -1:255 26 0] [0x2 5 1 [39 0] [38 4]] (REQUEST)
r 2.569134364 _32_ RTR  --- 0 AODV 48 [0 ffffffff 14 800] ------- [20:255 -1:255 26 0] [0x2 5 1 [39 0] [38 4]] (REQUEST)
r 2.569134369 _5_ RTR  --- 0 AODV 48 [0 ffffffff 14 800] ------- [20:255 -1:255 26 0] [0x2 5 1 [39 0] [38 4]] (REQUEST)
r 2.569134369 _30_ RTR  --- 0 AODV 48 [0 ffffffff 14 800] ------- [20:255 -1:255 26 0] [0x2 5 1 [39 0] [38 4]] (REQUEST)
s 2.569378955 _26_ MAC  --- 0 AODV 106 [0 ffffffff 1a 800] ------- [26:255 -1:255 26 0] [0x2 5 1 [39 0] [38 4]] (REQUEST)
s 2.569405425 _23_ RTR  --- 0 AODV 48 [0 ffffffff e 800] ------- [23:255 -1:255 25 0] [0x2 6 1 [39 0] [38 4]] (REQUEST)
s 2.569717659 _37_ RTR  --- 0 AODV 48 [0 ffffffff d 800] ------- [37:255 -1:255 27 0] [0x2 4 1 [39 0] [38 4]] (REQUEST)
s 2.569955940 _15_ RTR  --- 0 AODV 48 [0 ffffffff c 800] ------- [15:255 -1:255 26 0] [0x2 5 1 [39 0] [38 4]] (REQUEST)
s 2.569969005 _32_ RTR  --- 0 AODV 48 [0 ffffffff c 800] ------- [32:255 -1:255 26 0] [0x2 5 1 [39 0] [38 4]] (REQUEST)
s 2.570050940 _15_ MAC  --- 0 AODV 106 [0 ffffffff f 800] ------- [15:255 -1:255 26 0] [0x2 5 1 [39 0] [38 4]] (REQUEST)
D 2.570051576 _20_ MAC  COL 0 AODV 106 [0 ffffffff 1a 800] ------- [26:255 -1:255 26 0] [0x2 5 1 [39 0] [38 4]] (REQUEST)
D 2.570051672 _33_ MAC  COL 0 AODV 106 [0 ffffffff 1a 800] ------- [26:255 -1:255 26 0] [0x2 5 1 [39 0] [38 4]] (REQUEST)
D 2.570051770 _28_ MAC  COL 0 AODV 106 [0 ffffffff 1a 800] ------- [26:255 -1:255 26 0] [0x2 5 1 [39 0] [38 4]] (REQUEST)
D 2.570051814 _4_ MAC  COL 0 AODV 106 [0 ffffffff 1a 800] ------- [26:255 -1:255 26 0] [0x2 5 1 [39 0] [38 4]] (REQUEST)
D 2.570052273 _12_ MAC  COL 0 AODV 106 [0 ffffffff 1a 800] ------- [26:255 -1:255 26 0] [0x2 5 1 [39 0] [38 4]] (REQUEST)
s 2.570072659 _37_ MAC  --- 0 AODV 106 [0 ffffffff 25 800] ------- [37:255 -1:255 27 0] [0x2 4 1 [39 0] [38 4]] (REQUEST)
D 2.570073339 _1_ MAC  COL 0 AODV 106 [0 ffffffff 1a 800] ------- [26:255 -1:255 26 0] [0x2 5 1 [39 0] [38 4]] (REQUEST)
D 2.570073608 _11_ MAC  COL 0 AODV 106 [0 ffffffff 1a 800] ------- [26:255 -1:255 26 0] [0x2 5 1 [39 0] [38 4]] (REQUEST)
D 2.570073801 _36_ MAC  COL 0 AODV 106 [0 ffffffff 1a 800] ------- [26:255 -1:255 26 0] [0x2 5 1 [39 0] [38 4]] (REQUEST)
r 2.570227110 _24_ MAC  --- 0 AODV 48 [0 ffffffff 1a 800] ------- [26:255 -1:255 26 0] [0x2 5 1 [39 0] [38 4]] (REQUEST)
r 2.570227116 _25_ MAC  --- 0 AODV 48 [0 ffffffff 1a 800] ------- [26:255 -1:255 26 0] [0x2 5 1 [39 0] [38 4]] (REQUEST)
r 2.570227341 _14_ MAC  --- 0 AODV 48 [0 ffffffff 1a 800] ------- [26:255 -1:255 26 0] [0x2 5 1 [39 0] [38 4]] (REQUEST)
r 2.570227446 _27_ MAC  --- 0 AODV 48 [0 ffffffff 1a 800] ------- [26:255 -1:255 26 0] [0x2 5 1 [39 0] [38 4]] (REQUEST)
r 2.570227681 _19_ MAC  --- 0 AODV 48 [0 ffffffff 1a 800] ------- [26:255 -1:255 26 0] [0x2 5 1 [39 0] [38 4]] (REQUEST)
r 2.570227814 _23_ MAC  --- 0 AODV 48 [0 ffffffff 1a 800] ------- [26:255 -1:255 26 0] [0x2 5 1 [39 0] [38 4]] (REQUEST)
r 2.570227838 _9_ MAC  --- 0 AODV 48 [0 ffffffff 1a 800] ------- [26:255 -1:255 26 0] [0x2 5 1 [39 0] [38 4]] (REQUEST)
r 2.570227988 _30_ MAC  --- 0 AODV 48 [0 ffffffff 1a 800] ------- [26:255 -1:255 26 0] [0x2 5 1 [39 0] [38 4]] (REQUEST)
r 2.570227993 _5_ MAC  --- 0 AODV 48 [0 ffffffff 1a 800] ------- [26:255 -1:255 26 0] [0x2 5 1 [39 0] [38 4]] (REQUEST)
r 2.570228040 _21_ MAC  --- 0 AODV 48 [0 ffffffff 1a 800] ------- [26:255 -1:255 26 0] [0x2 5 1 [39 0] [38 4]] (REQUEST)
r 2.570228104 _6_ MAC  --- 0 AODV 48 [0 ffffffff 1a 800] ------- [26:255 -1:255 26 0] [0x2 5 1 [39 0] [38 4]] (REQUEST)
r 2.570228206 _8_ MAC  --- 0 AODV 48 [0 ffffffff 1a 800] ------- [26:255 -1:255 26 0] [0x2 5 1 [39 0] [38 4]] (REQUEST)
s 2.570242502 _29_ RTR  --- 0 AODV 48 [0 ffffffff d 800] ------- [29:255 -1:255 27 0] [0x2 4 1 [39 0] [38 4]] (REQUEST)
r 2.570252110 _24_ RTR  --- 0 AODV 48 [0 ffffffff 1a 800] ------- [26:255 -1:255 26 0] [0x2 5 1 [39 0] [38 4]] (REQUEST)
r 2.570252116 _25_ RTR  --- 0 AODV 48 [0 ffffffff 1a 800] ------- [26:255 -1:255 26 0] [0x2 5 1 [39 0] [38 4]] (REQUEST)
r 2.570252341 _14_ RTR  --- 0 AODV 48 [0 ffffffff 1a 800] ------- [26:255 -1:255 26 0] [0x2 5 1 [39 0] [38 4]] (REQUEST)
r 2.570252446 _27_ RTR  --- 0 AODV 48 [0 ffffffff 1a 800] ------- [26:255 -1:255 26 0] [0x2 5 1 [39 0] [38 4]] (REQUEST)
r 2.570252681 _19_ RTR  --- 0 AODV 48 [0 ffffffff 1a 800] ------- [26:255 -1:255 26 0] [0x2 5 1 [39 0] [38 4]] (REQUEST)
r 2.570252814 _23_ RTR  --- 0 AODV 48 [0 ffffffff 1a 800] ------- [26:255 -1:255 26 0] [0x2 5 1 [39 0] [38 4]] (REQUEST)
r 2.570252838 _9_ RTR  --- 0 AODV 48 [0 ffffffff 1a 800] ------- [26:255 -1:255 26 0] [0x2 5 1 [39 0] [38 4]] (REQUEST)
r 2.570252988 _30_ RTR  --- 0 AODV 48 [0 ffffffff 1a 800] ------- [26:255 -1:255 26 0] [0x2 5 1 [39 0] [38 4]] (REQUEST)